
     Program PWSCF v.7.0 starts on 13Oct2022 at  4:55:58 

     This program is part of the open-source Quantum ESPRESSO suite
     for quantum simulation of materials; please cite
         "P. Giannozzi et al., J. Phys.:Condens. Matter 21 395502 (2009);
         "P. Giannozzi et al., J. Phys.:Condens. Matter 29 465901 (2017);
         "P. Giannozzi et al., J. Chem. Phys. 152 154105 (2020);
          URL http://www.quantum-espresso.org", 
     in publications or presentations arising from this work. More details at
     http://www.quantum-espresso.org/quote

     Parallel version (MPI & OpenMP), running on    1200 processor cores
     Number of MPI processes:              1200
     Threads/MPI process:                     1

     MPI processes distributed on    25 nodes
     K-points division:     npool     =      20
     R & G space division:  proc/nbgrp/npool/nimage =      60
     164773 MiB available memory on the printing compute node when the environment starts
 
     Reading input from CeO2.in

     Current dimensions of program PWSCF are:
     Max number of different atomic species (ntypx) = 10
     Max number of k-points (npk) =  40000
     Max angular momentum in pseudopotentials (lmaxx) =  4
     file O.pbe-n-kjpaw_psl.0.1.UPF: wavefunction(s)  2P renormalized
     Found identity + (  0.0000  0.0000 -0.5000) symmetry
     This is a supercell, fractional translations are disabled
     Message from routine setup:
     using ibrav=0 with symmetry is DISCOURAGED, use correct ibrav instead

     Subspace diagonalization in iterative solution of the eigenvalue problem:
     one sub-group per band group will be used
     ELPA distributed-memory algorithm (size of sub-group:  4*  4 procs)

 
     Parallelization info
     --------------------
     sticks:   dense  smooth     PW     G-vecs:    dense   smooth      PW
     Min          98      48     13                 4961     1751     256
     Max         100      49     14                 4965     1758     260
     Sum        5887    2929    823               297813   105275   15473
 
     Using Slab Decomposition
 


     bravais-lattice index     =            0
     lattice parameter (alat)  =      14.6116  a.u.
     unit-cell volume          =    2205.8760 (a.u.)^3
     number of atoms/cell      =           24
     number of atomic types    =            2
     number of electrons       =       192.00
     number of Kohn-Sham states=          115
     kinetic-energy cutoff     =      50.0000  Ry
     charge density cutoff     =     400.0000  Ry
     scf convergence threshold =      1.0E-04
     mixing beta               =       0.4000
     number of iterations used =            8  plain     mixing
     Exchange-correlation= SLA  PW   PBX  PBC
                           (   1   4   3   4   0   0   0)

     celldm(1)=  14.611631  celldm(2)=   0.000000  celldm(3)=   0.000000
     celldm(4)=   0.000000  celldm(5)=   0.000000  celldm(6)=   0.000000

     crystal axes: (cart. coord. in units of alat)
               a(1) = (   1.000000   0.000000   0.000000 )  
               a(2) = (   0.500000   0.866025   0.000000 )  
               a(3) = (   0.500000   0.288675   0.816497 )  

     reciprocal axes: (cart. coord. in units 2 pi/alat)
               b(1) = (  1.000000 -0.577350 -0.408248 )  
               b(2) = (  0.000000  1.154700 -0.408248 )  
               b(3) = (  0.000000  0.000000  1.224745 )  


     PseudoPot. # 1 for Ce read from file:
     ./pseudo/Ce.GGA-PBE-paw-v1.0.UPF
     MD5 check sum: f2b950f613061344c13339c8d844425d
     Pseudo is Projector augmented-wave + core cor, Zval = 12.0
     Generated using ATOMPAW code
     Shape of augmentation charge: BESSEL
     Using radial grid of 1102 points,  8 beta functions with: 
                l(1) =   0
                l(2) =   0
                l(3) =   1
                l(4) =   1
                l(5) =   2
                l(6) =   2
                l(7) =   3
                l(8) =   3
     Q(r) pseudized with 0 coefficients 


     PseudoPot. # 2 for O  read from file:
     ./pseudo/O.pbe-n-kjpaw_psl.0.1.UPF
     MD5 check sum: 0234752ac141de4415c5fc33072bef88
     Pseudo is Projector augmented-wave + core cor, Zval =  6.0
     Generated using "atomic" code by A. Dal Corso  v.5.0.99 svn rev. 10869
     Shape of augmentation charge: BESSEL
     Using radial grid of 1095 points,  4 beta functions with: 
                l(1) =   0
                l(2) =   0
                l(3) =   1
                l(4) =   1
     Q(r) pseudized with 0 coefficients 


     atomic species   valence    mass     pseudopotential
        Ce            12.00   140.11600     Ce( 1.00)
        O              6.00    15.99940     O ( 1.00)

     12 Sym. Ops., with inversion, found



   Cartesian axes

     site n.     atom                  positions (alat units)
         1           Ce  tau(   1) = (   0.0000000   0.0000000   0.0000000  )
         2           Ce  tau(   2) = (   0.2500000   0.1443376   0.4082483  )
         3           Ce  tau(   3) = (   0.2500000   0.4330127   0.0000000  )
         4           Ce  tau(   4) = (   0.4999999   0.5773503   0.4082483  )
         5           Ce  tau(   5) = (   0.5000000   0.0000000   0.0000000  )
         6           Ce  tau(   6) = (   0.7500000   0.1443376   0.4082483  )
         7           Ce  tau(   7) = (   0.7500000   0.4330127   0.0000000  )
         8           Ce  tau(   8) = (   0.9999999   0.5773503   0.4082483  )
         9           O   tau(   9) = (   0.7500000   0.4330127   0.3061862  )
        10           O   tau(  10) = (   0.9999999   0.5773503   0.7144345  )
        11           O   tau(  11) = (   0.9999999   0.8660254   0.3061862  )
        12           O   tau(  12) = (   1.2499999   1.0103630   0.7144345  )
        13           O   tau(  13) = (   1.2500000   0.4330127   0.3061862  )
        14           O   tau(  14) = (   1.4999999   0.5773503   0.7144345  )
        15           O   tau(  15) = (   1.4999999   0.8660254   0.3061862  )
        16           O   tau(  16) = (   1.7499999   1.0103630   0.7144345  )
        17           O   tau(  17) = (   0.2500000   0.1443376   0.1020621  )
        18           O   tau(  18) = (   0.5000000   0.2886751   0.5103104  )
        19           O   tau(  19) = (   0.5000000   0.5773503   0.1020621  )
        20           O   tau(  20) = (   0.7499999   0.7216879   0.5103104  )
        21           O   tau(  21) = (   0.7500000   0.1443376   0.1020621  )
        22           O   tau(  22) = (   1.0000000   0.2886751   0.5103104  )
        23           O   tau(  23) = (   1.0000000   0.5773503   0.1020621  )
        24           O   tau(  24) = (   1.2499999   0.7216879   0.5103104  )

     number of k points=    20  Methfessel-Paxton smearing, width (Ry)=  0.0100
                       cart. coord. in units 2pi/alat
        k(    1) = (   0.1250000  -0.0721688  -0.0510310), wk =   0.0625000
        k(    2) = (   0.1250000  -0.0721688   0.2551552), wk =   0.0625000
        k(    3) = (   0.1250000  -0.0721688  -0.6634034), wk =   0.0625000
        k(    4) = (   0.1250000  -0.0721688  -0.3572172), wk =   0.0625000
        k(    5) = (   0.1250000   0.2165064  -0.1530931), wk =   0.1250000
        k(    6) = (   0.1250000   0.2165064  -0.7654655), wk =   0.1250000
        k(    7) = (   0.1250000  -0.6495190   0.1530931), wk =   0.1250000
        k(    8) = (   0.1250000  -0.6495190   0.4592793), wk =   0.1250000
        k(    9) = (   0.1250000  -0.6495190  -0.4592793), wk =   0.1250000
        k(   10) = (   0.1250000  -0.6495190  -0.1530931), wk =   0.1250000
        k(   11) = (   0.1250000  -0.3608439   0.0510310), wk =   0.1250000
        k(   12) = (   0.1250000  -0.3608439   0.3572172), wk =   0.1250000
        k(   13) = (   0.1250000  -0.3608439  -0.5613414), wk =   0.1250000
        k(   14) = (   0.1250000  -0.3608439  -0.2551552), wk =   0.1250000
        k(   15) = (   0.3750000  -0.2165063  -0.1530931), wk =   0.0625000
        k(   16) = (   0.3750000  -0.2165063   0.1530931), wk =   0.0625000
        k(   17) = (   0.3750000  -0.2165063  -0.7654655), wk =   0.0625000
        k(   18) = (   0.3750000  -0.2165063  -0.4592793), wk =   0.0625000
        k(   19) = (   0.3750000  -0.5051814  -0.0510310), wk =   0.1250000
        k(   20) = (   0.3750000  -0.5051814   0.2551552), wk =   0.1250000

     Dense  grid:   297813 G-vectors     FFT dimensions: (  96,  96,  96)

     Smooth grid:   105275 G-vectors     FFT dimensions: (  72,  72,  72)

     Estimated max dynamical RAM per process >      17.32 MB

     Estimated total dynamical RAM >      18.94 GB

     Check: negative core charge=   -0.000002

     Initial potential from superposition of free atoms

     starting charge     191.9441, renormalised to     192.0000
     Starting wfcs are  320 randomized atomic wfcs
     Checking if some PAW data can be deallocated... 

     total cpu time spent up to now is        1.0 secs

     per-process dynamical memory:   172.3 Mb

     Self-consistent Calculation

     iteration #  1     ecut=    50.00 Ry     beta= 0.40
     Davidson diagonalization with overlap
     ethr =  1.00E-02,  avg # of iterations =  1.0

     total cpu time spent up to now is        1.3 secs

     total energy              =   -4520.55523341 Ry
     estimated scf accuracy    <      13.45033375 Ry

     iteration #  2     ecut=    50.00 Ry     beta= 0.40
     Davidson diagonalization with overlap
     ethr =  7.01E-03,  avg # of iterations =  5.9
     Minimization algorithm failed to find Fermi energy: reverting to bisection
     Possible cause: smearing is larger than the electronic band-gap.

     total cpu time spent up to now is        1.7 secs

     total energy              =   -4504.01189688 Ry
     estimated scf accuracy    <     194.76974393 Ry

     iteration #  3     ecut=    50.00 Ry     beta= 0.40
     Davidson diagonalization with overlap
     ethr =  7.01E-03,  avg # of iterations =  9.4

     total cpu time spent up to now is        2.1 secs

     total energy              =   -4525.35071603 Ry
     estimated scf accuracy    <      10.26116470 Ry

     iteration #  4     ecut=    50.00 Ry     beta= 0.40
     Davidson diagonalization with overlap
     ethr =  5.34E-03,  avg # of iterations =  6.3

     total cpu time spent up to now is        2.5 secs

     total energy              =   -4527.64718398 Ry
     estimated scf accuracy    <       3.90129349 Ry

     iteration #  5     ecut=    50.00 Ry     beta= 0.40
     Davidson diagonalization with overlap
     ethr =  2.03E-03,  avg # of iterations =  1.9

     total cpu time spent up to now is        2.8 secs

     total energy              =   -4527.17163536 Ry
     estimated scf accuracy    <       3.28229520 Ry

     iteration #  6     ecut=    50.00 Ry     beta= 0.40
     Davidson diagonalization with overlap
     ethr =  1.71E-03,  avg # of iterations =  1.1

     total cpu time spent up to now is        3.1 secs

     total energy              =   -4526.58949639 Ry
     estimated scf accuracy    <       2.07355382 Ry

     iteration #  7     ecut=    50.00 Ry     beta= 0.40
     Davidson diagonalization with overlap
     ethr =  1.08E-03,  avg # of iterations = 10.0

     total cpu time spent up to now is        3.5 secs

     total energy              =   -4526.46945934 Ry
     estimated scf accuracy    <       9.29883176 Ry

     iteration #  8     ecut=    50.00 Ry     beta= 0.40
     Davidson diagonalization with overlap
     ethr =  1.08E-03,  avg # of iterations =  1.7

     total cpu time spent up to now is        3.8 secs

     total energy              =   -4526.66407889 Ry
     estimated scf accuracy    <       0.65621353 Ry

     iteration #  9     ecut=    50.00 Ry     beta= 0.40
     Davidson diagonalization with overlap
     ethr =  3.42E-04,  avg # of iterations =  3.8

     total cpu time spent up to now is        4.1 secs

     total energy              =   -4526.68262649 Ry
     estimated scf accuracy    <       0.25850707 Ry

     iteration # 10     ecut=    50.00 Ry     beta= 0.40
     Davidson diagonalization with overlap
     ethr =  1.35E-04,  avg # of iterations = 10.8

     total cpu time spent up to now is        4.8 secs

     total energy              =   -4526.74277160 Ry
     estimated scf accuracy    <       0.11877482 Ry

     iteration # 11     ecut=    50.00 Ry     beta= 0.40
     Davidson diagonalization with overlap
     ethr =  6.19E-05,  avg # of iterations = 12.2

     total cpu time spent up to now is        5.3 secs

     total energy              =   -4526.70089007 Ry
     estimated scf accuracy    <       0.36673471 Ry

     iteration # 12     ecut=    50.00 Ry     beta= 0.40
     Davidson diagonalization with overlap
     c_bands:  1 eigenvalues not converged
     ethr =  6.19E-05,  avg # of iterations = 19.2

     total cpu time spent up to now is        6.0 secs

     total energy              =   -4526.73285961 Ry
     estimated scf accuracy    <       0.18750914 Ry

     iteration # 13     ecut=    50.00 Ry     beta= 0.40
     Davidson diagonalization with overlap
     ethr =  6.19E-05,  avg # of iterations =  1.4

     total cpu time spent up to now is        6.3 secs

     total energy              =   -4526.72509200 Ry
     estimated scf accuracy    <       0.15970608 Ry

     iteration # 14     ecut=    50.00 Ry     beta= 0.40
     Davidson diagonalization with overlap
     ethr =  6.19E-05,  avg # of iterations =  1.1

     total cpu time spent up to now is        6.6 secs

     total energy              =   -4526.70435991 Ry
     estimated scf accuracy    <       0.10927623 Ry

     iteration # 15     ecut=    50.00 Ry     beta= 0.40
     Davidson diagonalization with overlap
     ethr =  5.69E-05,  avg # of iterations =  3.6

     total cpu time spent up to now is        6.9 secs

     total energy              =   -4526.71133545 Ry
     estimated scf accuracy    <       0.02408709 Ry

     iteration # 16     ecut=    50.00 Ry     beta= 0.40
     Davidson diagonalization with overlap
     ethr =  1.25E-05,  avg # of iterations = 18.9

     total cpu time spent up to now is        7.6 secs

     total energy              =   -4526.71745893 Ry
     estimated scf accuracy    <       0.00074212 Ry

     iteration # 17     ecut=    50.00 Ry     beta= 0.40
     Davidson diagonalization with overlap
     ethr =  3.87E-07,  avg # of iterations = 21.1

     total cpu time spent up to now is        8.6 secs

     total energy              =   -4526.71792485 Ry
     estimated scf accuracy    <       0.00388565 Ry

     iteration # 18     ecut=    50.00 Ry     beta= 0.40
     Davidson diagonalization with overlap
     ethr =  3.87E-07,  avg # of iterations = 17.9

     total cpu time spent up to now is        9.3 secs

     total energy              =   -4526.71779899 Ry
     estimated scf accuracy    <       0.00185747 Ry

     iteration # 19     ecut=    50.00 Ry     beta= 0.40
     Davidson diagonalization with overlap
     ethr =  3.87E-07,  avg # of iterations =  6.9

     total cpu time spent up to now is        9.8 secs

     total energy              =   -4526.71793620 Ry
     estimated scf accuracy    <       0.00083569 Ry

     iteration # 20     ecut=    50.00 Ry     beta= 0.40
     Davidson diagonalization with overlap
     ethr =  3.87E-07,  avg # of iterations =  5.3

     total cpu time spent up to now is       10.2 secs

     End of self-consistent calculation

          k = 0.1250-0.0722-0.0510 ( 13242 PWs)   bands (ev):

   -22.0091 -21.8410 -21.8318 -21.8317 -21.8312 -21.7752 -21.7752 -21.7747
    -8.0844  -8.0844  -8.0814  -7.7789  -7.7786  -7.7761  -7.7518  -5.9498
    -5.8022  -5.8021  -5.7986  -5.7455  -5.7455  -5.7420  -5.5880  -4.8607
    -4.7273  -4.7268  -4.7264  -4.5261  -4.5261  -4.5246  -4.4295  -4.4292
    -4.4287  -4.4084  -4.4081  -4.2133  -4.2125  -4.2113  -4.2084  -4.2080
    -4.0362  -1.9065  -1.8863  -1.8856  -1.8833  -1.2718  -1.2718  -1.2693
     6.7596   6.7596   6.7601   6.8142   6.8143   6.8753   7.6072   7.6073
     7.6752   7.6757   7.6780   7.6836   7.6852   7.6854   9.0826   9.0829
     9.0832   9.1135   9.1650   9.1652   9.1671   9.1814   9.1830   9.1832
     9.2487   9.2491   9.2492   9.3388   9.7028   9.7029   9.7132   9.7152
     9.7153   9.7685   9.7700   9.7703   9.8169   9.8170   9.8191   9.8545
     9.8548   9.8564   9.8767   9.8887   9.8891   9.8892   9.9001   9.9003
    12.3548  12.3572  12.3589  12.3890  12.4011  12.4047  12.4054  12.4727
    12.4745  12.4754  12.4803  12.4833  12.4846  12.5131  12.5153  12.5213
    12.5233  12.5254  12.5273

          k = 0.1250-0.0722 0.2552 ( 13183 PWs)   bands (ev):

   -21.9918 -21.8498 -21.8320 -21.8315 -21.8230 -21.7933 -21.7751 -21.7748
    -7.9863  -7.9846  -7.9783  -7.7184  -7.7022  -7.7005  -7.6482  -6.2648
    -6.1919  -6.1899  -6.1862  -6.0416  -6.0396  -5.7342  -5.6885  -4.9416
    -4.7267  -4.7266  -4.6898  -4.4962  -4.4489  -4.4415  -4.4398  -4.3896
    -4.2505  -4.2179  -4.2078  -4.0185  -4.0171  -3.9277  -3.9271  -3.8100
    -3.6912  -2.0577  -2.0095  -2.0083  -1.9936  -1.4424  -1.4410  -1.4363
     6.9171   6.9269   6.9277   6.9307   6.9617   7.0943   7.6071   7.6139
     7.7361   7.7372   7.7658   7.7683   7.7898   7.8472   8.7722   8.7815
     8.7889   8.8462   8.8463   8.9652   9.0030   9.0036   9.1930   9.1950
     9.1971   9.2175   9.2176   9.3030   9.5895   9.5999   9.6077   9.6155
     9.6553   9.6573   9.6693   9.6712   9.8139   9.8142   9.9246   9.9249
     9.9466   9.9478   9.9582  10.0239  10.0571  10.0575  10.0626  10.1178
    12.3683  12.3951  12.3965  12.4155  12.4432  12.4436  12.4494  12.4643
    12.4674  12.4926  12.4929  12.5143  12.5165  12.5175  12.5288  12.5347
    12.5427  12.5514  12.5522

          k = 0.1250-0.0722-0.6634 ( 13156 PWs)   bands (ev):

   -21.9334 -21.9100 -21.8210 -21.8159 -21.8146 -21.7968 -21.7916 -21.7909
    -7.6919  -7.6883  -7.6861  -7.6383  -7.6366  -7.6144  -7.1740  -6.9661
    -6.7676  -6.6777  -6.6758  -6.4318  -6.4300  -6.1721  -5.4571  -5.2952
    -4.6233  -4.6229  -4.5832  -4.5607  -4.5591  -4.5579  -4.3333  -4.3091
    -4.1828  -4.1755  -3.7997  -3.5026  -3.5017  -3.3669  -3.3654  -3.2581
    -2.9063  -2.6630  -2.0932  -2.0868  -2.0852  -1.9614  -1.9599  -1.9494
     7.2196   7.2414   7.3261   7.3574   7.5297   7.5300   7.5831   7.7360
     7.7750   7.7750   7.9090   8.1656   8.1676   8.2212   8.2265   8.3535
     8.3633   8.3654   8.4180   8.4799   8.4811   8.4865   8.6592   8.6612
     9.2543   9.2710   9.3220   9.3267   9.3268   9.5577   9.5590   9.5864
     9.5873   9.5887   9.6741   9.6764   9.7985   9.7997   9.8611   9.9093
    10.0032  10.0034  10.1830  10.1993  10.2003  10.2323  10.2330  10.2682
    12.4050  12.4284  12.4295  12.4473  12.4505  12.4654  12.4893  12.4932
    12.4986  12.4992  12.5046  12.5122  12.5561  12.5773  12.5958  12.5986
    12.6079  12.6261  12.6384

          k = 0.1250-0.0722-0.3572 ( 13192 PWs)   bands (ev):

   -21.9757 -21.8666 -21.8400 -21.8155 -21.8149 -21.7919 -21.7917 -21.7762
    -7.8971  -7.8955  -7.8892  -7.6758  -7.6742  -7.6315  -7.5290  -6.4900
    -6.4568  -6.4160  -6.4137  -6.1214  -6.1196  -6.0264  -5.6373  -5.0760
    -4.6860  -4.6847  -4.6746  -4.4944  -4.4942  -4.4653  -4.4063  -4.2331
    -4.1895  -4.1872  -4.0106  -4.0099  -3.8655  -3.7491  -3.5518  -3.5499
    -3.4692  -2.2105  -2.1044  -2.0671  -2.0658  -1.5947  -1.5919  -1.5899
     6.9792   7.0290   7.0866   7.1180   7.1182   7.3297   7.5399   7.5452
     7.7357   7.7669   7.8823   7.8840   7.9878   7.9886   8.5537   8.5551
     8.6646   8.6843   8.6863   8.7645   8.7877   8.7894   8.9367   9.0862
     9.1118   9.1301   9.3644   9.3655   9.5121   9.6099   9.6103   9.6138
     9.6515   9.6531   9.7381   9.8049   9.8079   9.8223   9.8535   9.8927
     9.8937  10.0060  10.0127  10.0465  10.1064  10.1072  10.1827  10.1841
    12.3787  12.3810  12.4345  12.4387  12.4429  12.4554  12.4769  12.5018
    12.5045  12.5053  12.5099  12.5131  12.5157  12.5258  12.5271  12.5418
    12.5434  12.5709  12.5752

          k = 0.1250 0.2165-0.1531 ( 13183 PWs)   bands (ev):

   -21.9918 -21.8498 -21.8319 -21.8316 -21.8230 -21.7933 -21.7751 -21.7748
    -7.9863  -7.9846  -7.9783  -7.7184  -7.7024  -7.7004  -7.6481  -6.2648
    -6.1919  -6.1898  -6.1861  -6.0417  -6.0395  -5.7342  -5.6885  -4.9416
    -4.7268  -4.7266  -4.6901  -4.4959  -4.4492  -4.4408  -4.4404  -4.3899
    -4.2508  -4.2178  -4.2079  -4.0185  -4.0170  -3.9278  -3.9267  -3.8097
    -3.6911  -2.0574  -2.0100  -2.0081  -1.9936  -1.4424  -1.4411  -1.4363
     6.9170   6.9273   6.9274   6.9307   6.9617   7.0943   7.6071   7.6139
     7.7362   7.7370   7.7663   7.7678   7.7898   7.8472   8.7722   8.7815
     8.7888   8.8461   8.8466   8.9652   9.0033   9.0034   9.1930   9.1949
     9.1970   9.2175   9.2177   9.3030   9.5894   9.5999   9.6077   9.6155
     9.6556   9.6571   9.6695   9.6711   9.8136   9.8145   9.9247   9.9248
     9.9465   9.9479   9.9581  10.0239  10.0572  10.0576  10.0626  10.1179
    12.3684  12.3936  12.3961  12.4151  12.4419  12.4438  12.4506  12.4660
    12.4664  12.4907  12.4948  12.5142  12.5158  12.5189  12.5230  12.5287
    12.5368  12.5451  12.5478

          k = 0.1250 0.2165-0.7655 ( 13176 PWs)   bands (ev):

   -21.9459 -21.8795 -21.8464 -21.8232 -21.8091 -21.8024 -21.7890 -21.7786
    -7.7343  -7.7223  -7.7011  -7.5813  -7.5650  -7.5340  -7.3751  -6.8204
    -6.8150  -6.7820  -6.6594  -6.5997  -6.1149  -5.9841  -5.7690  -5.3041
    -4.6829  -4.6578  -4.6083  -4.5396  -4.5345  -4.4735  -4.3811  -4.2940
    -4.0993  -4.0016  -3.9642  -3.7101  -3.4229  -3.3015  -3.2465  -3.1691
    -3.1002  -2.4391  -2.2474  -2.2176  -2.2136  -1.8897  -1.8849  -1.8695
     7.1670   7.2270   7.3751   7.4061   7.4713   7.5342   7.5501   7.7034
     7.7731   7.8323   7.9378   7.9754   8.1153   8.2301   8.2863   8.3392
     8.3984   8.4411   8.4549   8.4977   8.5723   8.6725   8.8148   8.9323
     8.9832   9.0286   9.1813   9.2071   9.3877   9.3910   9.4399   9.5318
     9.5874   9.6136   9.6759   9.6921   9.7621   9.7923   9.8150  10.0236
    10.1121  10.1235  10.1550  10.1690  10.2086  10.2503  10.2963  10.3118
    12.3934  12.4100  12.4223  12.4342  12.4510  12.4795  12.5041  12.5143
    12.5159  12.5174  12.5216  12.5376  12.5537  12.5558  12.5595  12.5785
    12.5794  12.6036  12.6092

          k = 0.1250-0.6495 0.1531 ( 13156 PWs)   bands (ev):

   -21.9334 -21.9100 -21.8211 -21.8155 -21.8149 -21.7969 -21.7913 -21.7911
    -7.6919  -7.6884  -7.6860  -7.6386  -7.6365  -7.6145  -7.1739  -6.9661
    -6.7674  -6.6776  -6.6757  -6.4317  -6.4299  -6.1720  -5.4571  -5.2952
    -4.6235  -4.6230  -4.5835  -4.5610  -4.5588  -4.5583  -4.3336  -4.3094
    -4.1829  -4.1756  -3.7995  -3.5025  -3.5014  -3.3666  -3.3653  -3.2578
    -2.9061  -2.6627  -2.0934  -2.0872  -2.0851  -1.9616  -1.9599  -1.9495
     7.2196   7.2415   7.3261   7.3574   7.5297   7.5301   7.5831   7.7360
     7.7747   7.7754   7.9089   8.1659   8.1674   8.2211   8.2265   8.3535
     8.3636   8.3652   8.4180   8.4803   8.4808   8.4865   8.6592   8.6612
     9.2543   9.2710   9.3219   9.3266   9.3270   9.5577   9.5590   9.5862
     9.5875   9.5886   9.6740   9.6765   9.7988   9.7996   9.8612   9.9092
    10.0031  10.0034  10.1831  10.1996  10.2000  10.2324  10.2329  10.2683
    12.4052  12.4276  12.4293  12.4469  12.4486  12.4645  12.4894  12.4909
    12.4982  12.4993  12.5042  12.5117  12.5577  12.5767  12.5955  12.6019
    12.6059  12.6284  12.6319

          k = 0.1250-0.6495 0.4593 ( 13176 PWs)   bands (ev):

   -21.9458 -21.8795 -21.8464 -21.8232 -21.8091 -21.8024 -21.7890 -21.7786
    -7.7343  -7.7223  -7.7011  -7.5813  -7.5651  -7.5340  -7.3750  -6.8202
    -6.8150  -6.7819  -6.6594  -6.5997  -6.1148  -5.9841  -5.7690  -5.3041
    -4.6829  -4.6580  -4.6082  -4.5398  -4.5345  -4.4738  -4.3812  -4.2941
    -4.0995  -4.0015  -3.9644  -3.7098  -3.4228  -3.3014  -3.2463  -3.1689
    -3.0999  -2.4389  -2.2475  -2.2180  -2.2135  -1.8898  -1.8850  -1.8696
     7.1671   7.2270   7.3751   7.4061   7.4713   7.5342   7.5502   7.7033
     7.7731   7.8323   7.9378   7.9754   8.1154   8.2301   8.2863   8.3392
     8.3984   8.4411   8.4549   8.4977   8.5723   8.6725   8.8148   8.9323
     8.9832   9.0286   9.1813   9.2071   9.3876   9.3910   9.4399   9.5319
     9.5874   9.6136   9.6759   9.6921   9.7621   9.7923   9.8150  10.0236
    10.1121  10.1234  10.1550  10.1690  10.2087  10.2503  10.2963  10.3119
    12.3922  12.4100  12.4226  12.4338  12.4498  12.4794  12.5040  12.5136
    12.5159  12.5174  12.5208  12.5345  12.5530  12.5554  12.5582  12.5802
    12.5819  12.6023  12.6112

          k = 0.1250-0.6495-0.4593 ( 13157 PWs)   bands (ev):

   -21.9172 -21.8709 -21.8603 -21.8322 -21.8321 -21.8131 -21.7749 -21.7746
    -7.5068  -7.5048  -7.4790  -7.4303  -7.4281  -7.3907  -7.3484  -7.1292
    -7.1273  -7.1090  -6.9020  -6.5882  -6.5865  -6.2755  -5.4342  -5.2619
    -4.7413  -4.7411  -4.5287  -4.4736  -4.4484  -4.4482  -4.4257  -4.3738
    -4.3689  -4.3051  -3.4405  -3.1943  -3.1931  -2.9312  -2.7879  -2.7863
    -2.6663  -2.5921  -2.5343  -2.4933  -2.4913  -2.2276  -2.2259  -2.1700
     7.4676   7.4735   7.5914   7.5918   7.7200   7.7408   7.7954   7.8670
     7.8906   7.8911   7.9527   7.9543   7.9974   8.0372   8.0389   8.2643
     8.3233   8.3234   8.4591   8.4776   8.4777   8.4870   8.5853   8.7636
     8.8412   9.1098   9.1100   9.2200   9.2612   9.2631   9.3060   9.3373
     9.3704   9.3718   9.4628   9.4649   9.7850   9.7855   9.9847   9.9848
    10.1589  10.1600  10.2184  10.2290  10.4009  10.4403  10.4407  10.4619
    12.4150  12.4161  12.4225  12.4450  12.4467  12.4785  12.4811  12.5149
    12.5174  12.5296  12.5313  12.5358  12.5589  12.5692  12.5721  12.5912
    12.6410  12.6602  12.6638

          k = 0.1250-0.6495-0.1531 ( 13166 PWs)   bands (ev):

   -21.9065 -21.8865 -21.8634 -21.8497 -21.8060 -21.7958 -21.7855 -21.7818
    -7.5039  -7.4817  -7.4731  -7.4576  -7.4402  -7.3744  -7.2526  -7.1637
    -7.1488  -7.1071  -7.0265  -6.8415  -6.2055  -5.9218  -5.7909  -5.5563
    -4.6759  -4.6649  -4.5660  -4.5561  -4.5062  -4.4701  -4.3948  -4.3563
    -4.0327  -4.0039  -3.7240  -3.5755  -2.9939  -2.8560  -2.8393  -2.8076
    -2.6697  -2.6531  -2.4283  -2.3802  -2.3666  -2.2984  -2.2836  -2.2432
     7.4722   7.5050   7.5510   7.5861   7.7190   7.7518   7.7756   7.8136
     7.8654   7.8980   7.9096   8.0145   8.1126   8.1197   8.1743   8.2367
     8.3143   8.3154   8.3336   8.4430   8.4502   8.5852   8.6117   8.7010
     8.7961   8.8678   8.8890   8.9495   9.2832   9.3822   9.4068   9.4722
     9.4905   9.5462   9.5857   9.6583   9.7066   9.7093   9.9452  10.0325
    10.2106  10.2116  10.2167  10.2790  10.3100  10.3642  10.3835  10.3895
    12.4094  12.4113  12.4166  12.4258  12.4720  12.4816  12.5091  12.5208
    12.5268  12.5284  12.5391  12.5453  12.5608  12.5650  12.5811  12.6047
    12.6103  12.6118  12.6301

          k = 0.1250-0.3608 0.0510 ( 13192 PWs)   bands (ev):

   -21.9757 -21.8666 -21.8400 -21.8153 -21.8151 -21.7921 -21.7916 -21.7762
    -7.8972  -7.8955  -7.8892  -7.6761  -7.6741  -7.6315  -7.5289  -6.4899
    -6.4567  -6.4157  -6.4138  -6.1214  -6.1195  -6.0263  -5.6373  -5.0760
    -4.6858  -4.6850  -4.6748  -4.4947  -4.4941  -4.4656  -4.4065  -4.2334
    -4.1896  -4.1873  -4.0107  -4.0097  -3.8652  -3.7489  -3.5510  -3.5501
    -3.4689  -2.2102  -2.1045  -2.0676  -2.0656  -1.5948  -1.5920  -1.5899
     6.9792   7.0290   7.0866   7.1179   7.1184   7.3296   7.5399   7.5453
     7.7357   7.7670   7.8826   7.8837   7.9880   7.9884   8.5540   8.5548
     8.6646   8.6844   8.6862   8.7645   8.7880   8.7890   8.9368   9.0862
     9.1118   9.1301   9.3646   9.3654   9.5121   9.6099   9.6101   9.6141
     9.6515   9.6532   9.7380   9.8049   9.8079   9.8221   9.8535   9.8930
     9.8934  10.0060  10.0127  10.0465  10.1065  10.1072  10.1832  10.1838
    12.3784  12.3801  12.4359  12.4360  12.4431  12.4552  12.4764  12.5009
    12.5044  12.5054  12.5105  12.5123  12.5172  12.5273  12.5316  12.5417
    12.5488  12.5726  12.5934

          k = 0.1250-0.3608 0.3572 ( 13176 PWs)   bands (ev):

   -21.9458 -21.8795 -21.8464 -21.8232 -21.8091 -21.8025 -21.7890 -21.7786
    -7.7343  -7.7223  -7.7012  -7.5813  -7.5650  -7.5341  -7.3750  -6.8204
    -6.8149  -6.7819  -6.6594  -6.5997  -6.1148  -5.9840  -5.7690  -5.3041
    -4.6830  -4.6578  -4.6084  -4.5396  -4.5347  -4.4734  -4.3812  -4.2940
    -4.0994  -4.0014  -3.9645  -3.7099  -3.4228  -3.3015  -3.2465  -3.1690
    -3.1001  -2.4388  -2.2477  -2.2176  -2.2136  -1.8898  -1.8849  -1.8696
     7.1670   7.2270   7.3751   7.4061   7.4713   7.5342   7.5501   7.7033
     7.7731   7.8323   7.9378   7.9755   8.1153   8.2301   8.2863   8.3392
     8.3984   8.4411   8.4549   8.4977   8.5723   8.6724   8.8148   8.9322
     8.9832   9.0286   9.1813   9.2071   9.3877   9.3910   9.4398   9.5318
     9.5874   9.6136   9.6759   9.6920   9.7622   9.7924   9.8150  10.0235
    10.1120  10.1234  10.1550  10.1690  10.2087  10.2503  10.2963  10.3118
    12.3936  12.4096  12.4218  12.4342  12.4509  12.4782  12.5041  12.5128
    12.5167  12.5186  12.5224  12.5356  12.5540  12.5576  12.5609  12.5772
    12.5852  12.6071  12.6233

          k = 0.1250-0.3608-0.5613 ( 13166 PWs)   bands (ev):

   -21.9066 -21.8865 -21.8634 -21.8497 -21.8060 -21.7957 -21.7855 -21.7819
    -7.5038  -7.4817  -7.4730  -7.4576  -7.4401  -7.3743  -7.2526  -7.1638
    -7.1489  -7.1072  -7.0265  -6.8415  -6.2055  -5.9218  -5.7909  -5.5563
    -4.6759  -4.6648  -4.5659  -4.5561  -4.5062  -4.4700  -4.3948  -4.3563
    -4.0326  -4.0040  -3.7239  -3.5756  -2.9940  -2.8560  -2.8395  -2.8077
    -2.6699  -2.6532  -2.4281  -2.3801  -2.3665  -2.2984  -2.2835  -2.2430
     7.4722   7.5050   7.5510   7.5861   7.7190   7.7518   7.7756   7.8136
     7.8654   7.8980   7.9096   8.0145   8.1126   8.1197   8.1743   8.2368
     8.3143   8.3155   8.3336   8.4430   8.4502   8.5852   8.6118   8.7010
     8.7961   8.8678   8.8890   8.9494   9.2832   9.3823   9.4068   9.4722
     9.4905   9.5461   9.5858   9.6582   9.7066   9.7093   9.9452  10.0324
    10.2106  10.2116  10.2167  10.2790  10.3101  10.3642  10.3835  10.3895
    12.4097  12.4109  12.4169  12.4257  12.4720  12.4828  12.5091  12.5210
    12.5266  12.5276  12.5388  12.5459  12.5606  12.5644  12.5809  12.6046
    12.6073  12.6120  12.6284

          k = 0.1250-0.3608-0.2552 ( 13163 PWs)   bands (ev):

   -21.9596 -21.8568 -21.8327 -21.8319 -21.8266 -21.8164 -21.7750 -21.7746
    -7.7920  -7.7902  -7.7739  -7.5778  -7.5666  -7.5644  -7.4911  -6.6891
    -6.6850  -6.6827  -6.5808  -6.3514  -6.3495  -6.0387  -5.5818  -5.0874
    -4.7351  -4.7349  -4.6210  -4.4649  -4.4463  -4.4460  -4.4414  -4.3762
    -4.3277  -4.2499  -3.8079  -3.5416  -3.5403  -3.3997  -3.3981  -3.3627
    -3.1935  -2.3137  -2.2359  -2.2340  -2.2179  -1.7699  -1.7682  -1.7473
     7.1433   7.1548   7.2339   7.2343   7.3423   7.4804   7.6620   7.6774
     7.8244   7.8250   7.8974   7.9068   7.9085   8.0679   8.3110   8.3289
     8.5669   8.6201   8.6205   8.6905   8.6905   8.8268   8.9926   9.0944
     9.1574   9.1575   9.1582   9.2245   9.2265   9.3290   9.4107   9.4282
     9.5000   9.5014   9.5513   9.5533   9.7967   9.7974   9.9626   9.9627
    10.0502  10.0561  10.1839  10.2062  10.2322  10.2973  10.2976  10.3377
    12.4015  12.4316  12.4322  12.4339  12.4359  12.4419  12.4781  12.4977
    12.4995  12.5169  12.5221  12.5384  12.5404  12.5453  12.5732  12.5832
    12.5887  12.6032  12.6101

          k = 0.3750-0.2165-0.1531 ( 13173 PWs)   bands (ev):

   -21.9609 -21.8912 -21.8157 -21.8154 -21.8151 -21.7919 -21.7918 -21.7913
    -7.8244  -7.8242  -7.8213  -7.6607  -7.6604  -7.6577  -7.3652  -6.6860
    -6.4229  -6.4226  -6.4197  -6.3601  -6.3600  -6.3571  -5.3942  -5.0911
    -4.6433  -4.6429  -4.6424  -4.5200  -4.5197  -4.5192  -4.3518  -4.3514
    -4.2689  -4.2686  -3.7631  -3.7630  -3.7610  -3.5331  -3.5325  -3.5309
    -3.2200  -2.4015  -2.0751  -2.0745  -2.0722  -1.7209  -1.7208  -1.7183
     7.0669   7.0670   7.2642   7.2644   7.2649   7.4020   7.4020   7.5566
     7.8468   7.8472   7.8477   8.0631   8.0646   8.0648   8.4343   8.4347
     8.4366   8.4855   8.6562   8.6578   8.6580   8.6923   8.6926   8.6952
     9.3601   9.3604   9.3606   9.4270   9.6094   9.6099   9.6100   9.6433
     9.7135   9.7135   9.7670   9.7688   9.7689   9.8031   9.8032   9.8150
     9.8168   9.8169  10.1323  10.1326  10.1333  10.1665  10.1669  10.1677
    12.4116  12.4139  12.4146  12.4572  12.4590  12.4607  12.4646  12.4667
    12.4668  12.4921  12.4946  12.4970  12.5624  12.5660  12.5735  12.5768
    12.5806  12.6120  12.6203

          k = 0.3750-0.2165 0.1531 ( 13163 PWs)   bands (ev):

   -21.9596 -21.8568 -21.8323 -21.8323 -21.8267 -21.8164 -21.7750 -21.7746
    -7.7920  -7.7902  -7.7739  -7.5779  -7.5663  -7.5646  -7.4911  -6.6891
    -6.6851  -6.6827  -6.5808  -6.3514  -6.3495  -6.0387  -5.5818  -5.0874
    -4.7351  -4.7349  -4.6208  -4.4647  -4.4469  -4.4461  -4.4416  -4.3759
    -4.3274  -4.2502  -3.8080  -3.5413  -3.5403  -3.3997  -3.3980  -3.3627
    -3.1934  -2.3138  -2.2353  -2.2343  -2.2181  -1.7698  -1.7682  -1.7474
     7.1434   7.1548   7.2339   7.2342   7.3423   7.4804   7.6620   7.6774
     7.8241   7.8252   7.8974   7.9065   7.9089   8.0679   8.3110   8.3289
     8.5669   8.6202   8.6203   8.6903   8.6907   8.8268   8.9926   9.0944
     9.1573   9.1575   9.1583   9.2244   9.2265   9.3290   9.4109   9.4282
     9.4996   9.5017   9.5513   9.5533   9.7970   9.7971   9.9623   9.9629
    10.0501  10.0562  10.1840  10.2062  10.2322  10.2973  10.2976  10.3378
    12.4001  12.4314  12.4326  12.4351  12.4367  12.4413  12.4770  12.4971
    12.5019  12.5171  12.5196  12.5377  12.5408  12.5420  12.5765  12.5796
    12.5817  12.5851  12.6145

          k = 0.3750-0.2165-0.7655 ( 13157 PWs)   bands (ev):

   -21.9172 -21.8709 -21.8603 -21.8325 -21.8318 -21.8131 -21.7749 -21.7745
    -7.5067  -7.5049  -7.4790  -7.4300  -7.4283  -7.3907  -7.3485  -7.1292
    -7.1273  -7.1091  -6.9020  -6.5882  -6.5866  -6.2755  -5.4342  -5.2619
    -4.7412  -4.7411  -4.5284  -4.4733  -4.4494  -4.4477  -4.4254  -4.3741
    -4.3686  -4.3052  -3.4405  -3.1941  -3.1934  -2.9314  -2.7880  -2.7863
    -2.6664  -2.5924  -2.5343  -2.4927  -2.4915  -2.2275  -2.2259  -2.1700
     7.4676   7.4734   7.5915   7.5918   7.7201   7.7408   7.7954   7.8670
     7.8903   7.8913   7.9527   7.9543   7.9974   8.0368   8.0394   8.2643
     8.3232   8.3235   8.4591   8.4775   8.4777   8.4870   8.5853   8.7636
     8.8412   9.1097   9.1100   9.2201   9.2612   9.2632   9.3061   9.3373
     9.3700   9.3720   9.4627   9.4649   9.7851   9.7854   9.9843   9.9852
    10.1590  10.1599  10.2185  10.2289  10.4009  10.4404  10.4406  10.4619
    12.4150  12.4162  12.4216  12.4448  12.4488  12.4772  12.4813  12.5147
    12.5189  12.5298  12.5317  12.5340  12.5573  12.5701  12.5716  12.5911
    12.6419  12.6566  12.6618

          k = 0.3750-0.2165-0.4593 ( 13169 PWs)   bands (ev):

   -21.9203 -21.8969 -21.8574 -21.8161 -21.8153 -21.7919 -21.7915 -21.7854
    -7.6225  -7.6208  -7.5345  -7.5329  -7.5310  -7.4975  -7.2495  -7.0275
    -7.0059  -6.9381  -6.9358  -6.4376  -6.4358  -5.9118  -5.6086  -5.6039
    -4.6197  -4.6196  -4.5890  -4.5877  -4.5830  -4.5038  -4.4161  -4.2863
    -4.0099  -3.9121  -3.8776  -3.4783  -3.4774  -3.0966  -2.9839  -2.9818
    -2.9113  -2.5761  -2.2484  -2.2459  -2.2442  -2.1238  -2.0969  -2.0954
     7.2969   7.3751   7.4826   7.4993   7.6209   7.7093   7.7096   7.7603
     7.8326   7.8535   7.8537   8.0442   8.2224   8.2233   8.2365   8.2386
     8.2525   8.3300   8.3632   8.3655   8.5785   8.6464   8.6485   8.7422
     8.7772   8.8145   9.2227   9.2705   9.2966   9.2969   9.4901   9.4903
     9.5024   9.6413   9.6427   9.6675   9.7474   9.7486  10.0125  10.0145
    10.0601  10.1390  10.2098  10.2480  10.2492  10.3151  10.3242  10.3247
    12.4048  12.4071  12.4100  12.4439  12.4485  12.4888  12.5101  12.5149
    12.5219  12.5297  12.5459  12.5463  12.5519  12.5647  12.5963  12.5990
    12.6047  12.6085  12.6137

          k = 0.3750-0.5052-0.0510 ( 13169 PWs)   bands (ev):

   -21.9203 -21.8969 -21.8574 -21.8157 -21.8157 -21.7923 -21.7911 -21.7854
    -7.6228  -7.6207  -7.5347  -7.5327  -7.5310  -7.4975  -7.2495  -7.0274
    -7.0059  -6.9378  -6.9360  -6.4376  -6.4358  -5.9117  -5.6086  -5.6038
    -4.6199  -4.6195  -4.5885  -4.5879  -4.5833  -4.5041  -4.4164  -4.2865
    -4.0096  -3.9121  -3.8775  -3.4784  -3.4774  -3.0965  -2.9833  -2.9821
    -2.9111  -2.5762  -2.2481  -2.2464  -2.2441  -2.1238  -2.0972  -2.0953
     7.2969   7.3751   7.4825   7.4994   7.6209   7.7090   7.7099   7.7603
     7.8326   7.8534   7.8539   8.0442   8.2227   8.2231   8.2365   8.2385
     8.2525   8.3300   8.3636   8.3651   8.5785   8.6465   8.6484   8.7422
     8.7772   8.8144   9.2227   9.2705   9.2966   9.2969   9.4901   9.4903
     9.5023   9.6411   9.6430   9.6674   9.7478   9.7484  10.0124  10.0146
    10.0600  10.1390  10.2099  10.2484  10.2488  10.3151  10.3242  10.3246
    12.4047  12.4066  12.4111  12.4450  12.4455  12.4888  12.5102  12.5126
    12.5223  12.5296  12.5454  12.5471  12.5528  12.5666  12.5966  12.6023
    12.6054  12.6093  12.6130

          k = 0.3750-0.5052 0.2552 ( 13166 PWs)   bands (ev):

   -21.9065 -21.8865 -21.8634 -21.8497 -21.8060 -21.7958 -21.7855 -21.7818
    -7.5039  -7.4818  -7.4731  -7.4576  -7.4402  -7.3743  -7.2525  -7.1637
    -7.1488  -7.1072  -7.0265  -6.8415  -6.2055  -5.9218  -5.7909  -5.5562
    -4.6758  -4.6650  -4.5658  -4.5564  -4.5063  -4.4699  -4.3950  -4.3566
    -4.0325  -4.0038  -3.7239  -3.5756  -2.9939  -2.8559  -2.8392  -2.8076
    -2.6698  -2.6530  -2.4282  -2.3804  -2.3666  -2.2985  -2.2836  -2.2431
     7.4722   7.5050   7.5511   7.5861   7.7190   7.7518   7.7756   7.8136
     7.8654   7.8980   7.9096   8.0145   8.1126   8.1197   8.1743   8.2367
     8.3143   8.3155   8.3336   8.4430   8.4502   8.5853   8.6118   8.7010
     8.7961   8.8678   8.8890   8.9495   9.2831   9.3822   9.4068   9.4722
     9.4905   9.5461   9.5857   9.6583   9.7066   9.7093   9.9452  10.0325
    10.2108  10.2115  10.2167  10.2790  10.3101  10.3642  10.3835  10.3895
    12.4106  12.4116  12.4161  12.4247  12.4711  12.4819  12.5102  12.5208
    12.5253  12.5274  12.5385  12.5458  12.5608  12.5666  12.5826  12.6055
    12.6083  12.6130  12.6212

     the Fermi energy is    11.6872 ev

!    total energy              =   -4526.71804903 Ry

     total all-electron energy =     -6268.268328 Ry
     estimated scf accuracy    <       0.00007376 Ry
     smearing contrib. (-TS)   =       0.00000000 Ry
     internal energy E=F+TS    =   -4526.71804903 Ry

     The total energy is F=E-TS. E is the sum of the following terms:
     one-electron contribution =     -99.13893463 Ry
     hartree contribution      =     198.78016180 Ry
     xc contribution           =    -202.41749189 Ry
     ewald contribution        =   -1006.38839996 Ry
     one-center paw contrib.   =   -3417.55338435 Ry

     convergence has been achieved in  20 iterations

     Writing all to output data dir ./out/CeO2.save/
 
     init_run     :      0.56s CPU      0.70s WALL (       1 calls)
     electrons    :      8.87s CPU      9.34s WALL (       1 calls)

     Called by init_run:
     wfcinit      :      0.14s CPU      0.19s WALL (       1 calls)
     potinit      :      0.18s CPU      0.22s WALL (       1 calls)
     hinit0       :      0.14s CPU      0.17s WALL (       1 calls)

     Called by electrons:
     c_bands      :      5.59s CPU      5.85s WALL (      20 calls)
     sum_band     :      0.63s CPU      0.68s WALL (      20 calls)
     v_of_rho     :      0.19s CPU      0.19s WALL (      21 calls)
     newd         :      0.13s CPU      0.14s WALL (      21 calls)
     PAW_pot      :      2.21s CPU      2.29s WALL (      21 calls)
     mix_rho      :      0.08s CPU      0.08s WALL (      20 calls)

     Called by c_bands:
     init_us_2    :      0.02s CPU      0.03s WALL (      41 calls)
     init_us_2:cp :      0.02s CPU      0.03s WALL (      41 calls)
     cegterg      :      3.58s CPU      3.83s WALL (      20 calls)

     Called by *egterg:
     cdiaghg      :      1.48s CPU      1.60s WALL (     167 calls)
     h_psi        :      1.52s CPU      1.65s WALL (     168 calls)
     s_psi        :      0.13s CPU      0.14s WALL (     168 calls)
     g_psi        :      0.00s CPU      0.00s WALL (     147 calls)

     Called by h_psi:
     h_psi:calbec :      0.24s CPU      0.26s WALL (     168 calls)
     vloc_psi     :      1.11s CPU      1.21s WALL (     168 calls)
     add_vuspsi   :      0.16s CPU      0.18s WALL (     168 calls)

     General routines
     calbec       :      0.30s CPU      0.32s WALL (     188 calls)
     fft          :      0.13s CPU      0.14s WALL (     271 calls)
     ffts         :      0.11s CPU      0.15s WALL (      41 calls)
     fftw         :      1.17s CPU      1.28s WALL (   15614 calls)
     interpolate  :      0.07s CPU      0.09s WALL (      21 calls)
 
     Parallel routines
 
     PWSCF        :      9.74s CPU     12.14s WALL

 
   This run was terminated on:   4:56:10  13Oct2022            

=------------------------------------------------------------------------------=
   JOB DONE.
=------------------------------------------------------------------------------=

======================================================================================
                  Resource Usage on 2022-10-13 04:56:14:
   Job Id:             60254202.gadi-pbs
   Project:            jx00
   Exit Status:        0
   Service Units:      13.33
   NCPUs Requested:    1200                   NCPUs Used: 1200            
                                           CPU Time Used: 04:19:29        
   Memory Requested:   760.0GB               Memory Used: 277.16GB        
   Walltime requested: 00:01:00            Walltime Used: 00:00:20        
   JobFS requested:    2.44GB                 JobFS used: 0B              
======================================================================================
