
     Program PWSCF v.7.0 starts on 13Oct2022 at  0:19:14 

     This program is part of the open-source Quantum ESPRESSO suite
     for quantum simulation of materials; please cite
         "P. Giannozzi et al., J. Phys.:Condens. Matter 21 395502 (2009);
         "P. Giannozzi et al., J. Phys.:Condens. Matter 29 465901 (2017);
         "P. Giannozzi et al., J. Chem. Phys. 152 154105 (2020);
          URL http://www.quantum-espresso.org", 
     in publications or presentations arising from this work. More details at
     http://www.quantum-espresso.org/quote

     Parallel version (MPI & OpenMP), running on      40 processor cores
     Number of MPI processes:                40
     Threads/MPI process:                     1

     MPI processes distributed on     1 nodes
     K-points division:     npool     =      20
     R & G space division:  proc/nbgrp/npool/nimage =       2
     109006 MiB available memory on the printing compute node when the environment starts
 
     Reading input from CeO2.in

     Current dimensions of program PWSCF are:
     Max number of different atomic species (ntypx) = 10
     Max number of k-points (npk) =  40000
     Max angular momentum in pseudopotentials (lmaxx) =  4
     file O.pbe-n-kjpaw_psl.0.1.UPF: wavefunction(s)  2P renormalized
     Found identity + (  0.0000  0.0000 -0.5000) symmetry
     This is a supercell, fractional translations are disabled
     Message from routine setup:
     using ibrav=0 with symmetry is DISCOURAGED, use correct ibrav instead

     Subspace diagonalization in iterative solution of the eigenvalue problem:
     a serial algorithm will be used

 
     Parallelization info
     --------------------
     sticks:   dense  smooth     PW     G-vecs:    dense   smooth      PW
     Min        2943    1464    411               148906    52637    7736
     Max        2944    1465    412               148907    52638    7737
     Sum        5887    2929    823               297813   105275   15473
 
     Using Slab Decomposition
 


     bravais-lattice index     =            0
     lattice parameter (alat)  =      14.6116  a.u.
     unit-cell volume          =    2205.8760 (a.u.)^3
     number of atoms/cell      =           24
     number of atomic types    =            2
     number of electrons       =       192.00
     number of Kohn-Sham states=          115
     kinetic-energy cutoff     =      50.0000  Ry
     charge density cutoff     =     400.0000  Ry
     scf convergence threshold =      1.0E-04
     mixing beta               =       0.4000
     number of iterations used =            8  plain     mixing
     Exchange-correlation= SLA  PW   PBX  PBC
                           (   1   4   3   4   0   0   0)

     celldm(1)=  14.611631  celldm(2)=   0.000000  celldm(3)=   0.000000
     celldm(4)=   0.000000  celldm(5)=   0.000000  celldm(6)=   0.000000

     crystal axes: (cart. coord. in units of alat)
               a(1) = (   1.000000   0.000000   0.000000 )  
               a(2) = (   0.500000   0.866025   0.000000 )  
               a(3) = (   0.500000   0.288675   0.816497 )  

     reciprocal axes: (cart. coord. in units 2 pi/alat)
               b(1) = (  1.000000 -0.577350 -0.408248 )  
               b(2) = (  0.000000  1.154700 -0.408248 )  
               b(3) = (  0.000000  0.000000  1.224745 )  


     PseudoPot. # 1 for Ce read from file:
     ./pseudo/Ce.GGA-PBE-paw-v1.0.UPF
     MD5 check sum: f2b950f613061344c13339c8d844425d
     Pseudo is Projector augmented-wave + core cor, Zval = 12.0
     Generated using ATOMPAW code
     Shape of augmentation charge: BESSEL
     Using radial grid of 1102 points,  8 beta functions with: 
                l(1) =   0
                l(2) =   0
                l(3) =   1
                l(4) =   1
                l(5) =   2
                l(6) =   2
                l(7) =   3
                l(8) =   3
     Q(r) pseudized with 0 coefficients 


     PseudoPot. # 2 for O  read from file:
     ./pseudo/O.pbe-n-kjpaw_psl.0.1.UPF
     MD5 check sum: 0234752ac141de4415c5fc33072bef88
     Pseudo is Projector augmented-wave + core cor, Zval =  6.0
     Generated using "atomic" code by A. Dal Corso  v.5.0.99 svn rev. 10869
     Shape of augmentation charge: BESSEL
     Using radial grid of 1095 points,  4 beta functions with: 
                l(1) =   0
                l(2) =   0
                l(3) =   1
                l(4) =   1
     Q(r) pseudized with 0 coefficients 


     atomic species   valence    mass     pseudopotential
        Ce            12.00   140.11600     Ce( 1.00)
        O              6.00    15.99940     O ( 1.00)

     12 Sym. Ops., with inversion, found



   Cartesian axes

     site n.     atom                  positions (alat units)
         1           Ce  tau(   1) = (   0.0000000   0.0000000   0.0000000  )
         2           Ce  tau(   2) = (   0.2500000   0.1443376   0.4082483  )
         3           Ce  tau(   3) = (   0.2500000   0.4330127   0.0000000  )
         4           Ce  tau(   4) = (   0.4999999   0.5773503   0.4082483  )
         5           Ce  tau(   5) = (   0.5000000   0.0000000   0.0000000  )
         6           Ce  tau(   6) = (   0.7500000   0.1443376   0.4082483  )
         7           Ce  tau(   7) = (   0.7500000   0.4330127   0.0000000  )
         8           Ce  tau(   8) = (   0.9999999   0.5773503   0.4082483  )
         9           O   tau(   9) = (   0.7500000   0.4330127   0.3061862  )
        10           O   tau(  10) = (   0.9999999   0.5773503   0.7144345  )
        11           O   tau(  11) = (   0.9999999   0.8660254   0.3061862  )
        12           O   tau(  12) = (   1.2499999   1.0103630   0.7144345  )
        13           O   tau(  13) = (   1.2500000   0.4330127   0.3061862  )
        14           O   tau(  14) = (   1.4999999   0.5773503   0.7144345  )
        15           O   tau(  15) = (   1.4999999   0.8660254   0.3061862  )
        16           O   tau(  16) = (   1.7499999   1.0103630   0.7144345  )
        17           O   tau(  17) = (   0.2500000   0.1443376   0.1020621  )
        18           O   tau(  18) = (   0.5000000   0.2886751   0.5103104  )
        19           O   tau(  19) = (   0.5000000   0.5773503   0.1020621  )
        20           O   tau(  20) = (   0.7499999   0.7216879   0.5103104  )
        21           O   tau(  21) = (   0.7500000   0.1443376   0.1020621  )
        22           O   tau(  22) = (   1.0000000   0.2886751   0.5103104  )
        23           O   tau(  23) = (   1.0000000   0.5773503   0.1020621  )
        24           O   tau(  24) = (   1.2499999   0.7216879   0.5103104  )

     number of k points=    20  Methfessel-Paxton smearing, width (Ry)=  0.0100
                       cart. coord. in units 2pi/alat
        k(    1) = (   0.1250000  -0.0721688  -0.0510310), wk =   0.0625000
        k(    2) = (   0.1250000  -0.0721688   0.2551552), wk =   0.0625000
        k(    3) = (   0.1250000  -0.0721688  -0.6634034), wk =   0.0625000
        k(    4) = (   0.1250000  -0.0721688  -0.3572172), wk =   0.0625000
        k(    5) = (   0.1250000   0.2165064  -0.1530931), wk =   0.1250000
        k(    6) = (   0.1250000   0.2165064  -0.7654655), wk =   0.1250000
        k(    7) = (   0.1250000  -0.6495190   0.1530931), wk =   0.1250000
        k(    8) = (   0.1250000  -0.6495190   0.4592793), wk =   0.1250000
        k(    9) = (   0.1250000  -0.6495190  -0.4592793), wk =   0.1250000
        k(   10) = (   0.1250000  -0.6495190  -0.1530931), wk =   0.1250000
        k(   11) = (   0.1250000  -0.3608439   0.0510310), wk =   0.1250000
        k(   12) = (   0.1250000  -0.3608439   0.3572172), wk =   0.1250000
        k(   13) = (   0.1250000  -0.3608439  -0.5613414), wk =   0.1250000
        k(   14) = (   0.1250000  -0.3608439  -0.2551552), wk =   0.1250000
        k(   15) = (   0.3750000  -0.2165063  -0.1530931), wk =   0.0625000
        k(   16) = (   0.3750000  -0.2165063   0.1530931), wk =   0.0625000
        k(   17) = (   0.3750000  -0.2165063  -0.7654655), wk =   0.0625000
        k(   18) = (   0.3750000  -0.2165063  -0.4592793), wk =   0.0625000
        k(   19) = (   0.3750000  -0.5051814  -0.0510310), wk =   0.1250000
        k(   20) = (   0.3750000  -0.5051814   0.2551552), wk =   0.1250000

     Dense  grid:   297813 G-vectors     FFT dimensions: (  96,  96,  96)

     Smooth grid:   105275 G-vectors     FFT dimensions: (  72,  72,  72)

     Estimated max dynamical RAM per process >     226.37 MB

     Estimated total dynamical RAM >       7.49 GB

     Check: negative core charge=   -0.000002

     Initial potential from superposition of free atoms

     starting charge     191.9441, renormalised to     192.0000
     Starting wfcs are  320 randomized atomic wfcs
     Checking if some PAW data can be deallocated... 

     total cpu time spent up to now is        4.9 secs

     per-process dynamical memory:   301.1 Mb

     Self-consistent Calculation

     iteration #  1     ecut=    50.00 Ry     beta= 0.40
     Davidson diagonalization with overlap
     ethr =  1.00E-02,  avg # of iterations =  1.0

     total cpu time spent up to now is        8.5 secs

     total energy              =   -4520.55317141 Ry
     estimated scf accuracy    <      13.45189059 Ry

     iteration #  2     ecut=    50.00 Ry     beta= 0.40
     Davidson diagonalization with overlap
     ethr =  7.01E-03,  avg # of iterations =  6.0
     Minimization algorithm failed to find Fermi energy: reverting to bisection
     Possible cause: smearing is larger than the electronic band-gap.

     total cpu time spent up to now is       12.9 secs

     total energy              =   -4504.03415918 Ry
     estimated scf accuracy    <     194.50794780 Ry

     iteration #  3     ecut=    50.00 Ry     beta= 0.40
     Davidson diagonalization with overlap
     ethr =  7.01E-03,  avg # of iterations =  9.6

     total cpu time spent up to now is       17.7 secs

     total energy              =   -4525.49680247 Ry
     estimated scf accuracy    <       9.50603555 Ry

     iteration #  4     ecut=    50.00 Ry     beta= 0.40
     Davidson diagonalization with overlap
     ethr =  4.95E-03,  avg # of iterations =  6.0

     total cpu time spent up to now is       21.5 secs

     total energy              =   -4527.65025720 Ry
     estimated scf accuracy    <       3.85804187 Ry

     iteration #  5     ecut=    50.00 Ry     beta= 0.40
     Davidson diagonalization with overlap
     ethr =  2.01E-03,  avg # of iterations =  1.9

     total cpu time spent up to now is       24.9 secs

     total energy              =   -4527.11508521 Ry
     estimated scf accuracy    <       3.25083811 Ry

     iteration #  6     ecut=    50.00 Ry     beta= 0.40
     Davidson diagonalization with overlap
     ethr =  1.69E-03,  avg # of iterations =  1.1

     total cpu time spent up to now is       28.2 secs

     total energy              =   -4526.59413599 Ry
     estimated scf accuracy    <       2.02144059 Ry

     iteration #  7     ecut=    50.00 Ry     beta= 0.40
     Davidson diagonalization with overlap
     ethr =  1.05E-03,  avg # of iterations =  8.9

     total cpu time spent up to now is       32.3 secs

     total energy              =   -4526.32322755 Ry
     estimated scf accuracy    <      12.24239906 Ry

     iteration #  8     ecut=    50.00 Ry     beta= 0.40
     Davidson diagonalization with overlap
     ethr =  1.05E-03,  avg # of iterations =  1.9

     total cpu time spent up to now is       35.7 secs

     total energy              =   -4526.66364285 Ry
     estimated scf accuracy    <       0.53025521 Ry

     iteration #  9     ecut=    50.00 Ry     beta= 0.40
     Davidson diagonalization with overlap
     ethr =  2.76E-04,  avg # of iterations =  4.2

     total cpu time spent up to now is       39.4 secs

     total energy              =   -4526.69115197 Ry
     estimated scf accuracy    <       0.18619978 Ry

     iteration # 10     ecut=    50.00 Ry     beta= 0.40
     Davidson diagonalization with overlap
     ethr =  9.70E-05,  avg # of iterations = 14.8

     total cpu time spent up to now is       44.5 secs

     total energy              =   -4526.74972773 Ry
     estimated scf accuracy    <       0.06010311 Ry

     iteration # 11     ecut=    50.00 Ry     beta= 0.40
     Davidson diagonalization with overlap
     c_bands:  3 eigenvalues not converged
     ethr =  3.13E-05,  avg # of iterations = 19.2

     total cpu time spent up to now is       51.0 secs

     total energy              =   -4526.71431379 Ry
     estimated scf accuracy    <       0.40218344 Ry

     iteration # 12     ecut=    50.00 Ry     beta= 0.40
     Davidson diagonalization with overlap
     ethr =  3.13E-05,  avg # of iterations =  6.2

     total cpu time spent up to now is       55.5 secs

     total energy              =   -4526.72289169 Ry
     estimated scf accuracy    <       0.13036306 Ry

     iteration # 13     ecut=    50.00 Ry     beta= 0.40
     Davidson diagonalization with overlap
     ethr =  3.13E-05,  avg # of iterations =  3.1

     total cpu time spent up to now is       58.9 secs

     total energy              =   -4526.71791356 Ry
     estimated scf accuracy    <       0.10417412 Ry

     iteration # 14     ecut=    50.00 Ry     beta= 0.40
     Davidson diagonalization with overlap
     ethr =  3.13E-05,  avg # of iterations = 15.8

     total cpu time spent up to now is       63.7 secs

     total energy              =   -4526.71770527 Ry
     estimated scf accuracy    <       0.04451371 Ry

     iteration # 15     ecut=    50.00 Ry     beta= 0.40
     Davidson diagonalization with overlap
     ethr =  2.32E-05,  avg # of iterations =  4.3

     total cpu time spent up to now is       67.6 secs

     total energy              =   -4526.71896074 Ry
     estimated scf accuracy    <       0.02380218 Ry

     iteration # 16     ecut=    50.00 Ry     beta= 0.40
     Davidson diagonalization with overlap
     ethr =  1.24E-05,  avg # of iterations =  5.0

     total cpu time spent up to now is       72.1 secs

     total energy              =   -4526.71447670 Ry
     estimated scf accuracy    <       0.02088857 Ry

     iteration # 17     ecut=    50.00 Ry     beta= 0.40
     Davidson diagonalization with overlap
     ethr =  1.09E-05,  avg # of iterations = 15.4

     total cpu time spent up to now is       77.3 secs

     total energy              =   -4526.71988687 Ry
     estimated scf accuracy    <       0.01322889 Ry

     iteration # 18     ecut=    50.00 Ry     beta= 0.40
     Davidson diagonalization with overlap
     ethr =  6.89E-06,  avg # of iterations =  4.8

     total cpu time spent up to now is       81.3 secs

     total energy              =   -4526.71561771 Ry
     estimated scf accuracy    <       0.01504924 Ry

     iteration # 19     ecut=    50.00 Ry     beta= 0.40
     Davidson diagonalization with overlap
     ethr =  6.89E-06,  avg # of iterations = 19.5

     total cpu time spent up to now is       86.9 secs

     total energy              =   -4526.71799114 Ry
     estimated scf accuracy    <       0.00091093 Ry

     iteration # 20     ecut=    50.00 Ry     beta= 0.40
     Davidson diagonalization with overlap
     c_bands:  1 eigenvalues not converged
     ethr =  4.74E-07,  avg # of iterations = 19.8

     total cpu time spent up to now is       93.3 secs

     total energy              =   -4526.71799498 Ry
     estimated scf accuracy    <       0.00128420 Ry

     iteration # 21     ecut=    50.00 Ry     beta= 0.40
     Davidson diagonalization with overlap
     ethr =  4.74E-07,  avg # of iterations =  7.1

     total cpu time spent up to now is       97.6 secs

     total energy              =   -4526.71783367 Ry
     estimated scf accuracy    <       0.00048919 Ry

     iteration # 22     ecut=    50.00 Ry     beta= 0.40
     Davidson diagonalization with overlap
     ethr =  2.55E-07,  avg # of iterations =  6.8

     total cpu time spent up to now is      102.3 secs

     total energy              =   -4526.71816297 Ry
     estimated scf accuracy    <       0.00141550 Ry

     iteration # 23     ecut=    50.00 Ry     beta= 0.40
     Davidson diagonalization with overlap
     ethr =  2.55E-07,  avg # of iterations =  1.8

     total cpu time spent up to now is      105.7 secs

     total energy              =   -4526.71789148 Ry
     estimated scf accuracy    <       0.00090139 Ry

     iteration # 24     ecut=    50.00 Ry     beta= 0.40
     Davidson diagonalization with overlap
     ethr =  2.55E-07,  avg # of iterations =  5.0

     total cpu time spent up to now is      110.1 secs

     total energy              =   -4526.71810732 Ry
     estimated scf accuracy    <       0.00024162 Ry

     iteration # 25     ecut=    50.00 Ry     beta= 0.40
     Davidson diagonalization with overlap
     ethr =  1.26E-07,  avg # of iterations =  1.6

     total cpu time spent up to now is      113.5 secs

     total energy              =   -4526.71808641 Ry
     estimated scf accuracy    <       0.00012168 Ry

     iteration # 26     ecut=    50.00 Ry     beta= 0.40
     Davidson diagonalization with overlap
     ethr =  6.34E-08,  avg # of iterations =  5.0

     total cpu time spent up to now is      117.5 secs

     End of self-consistent calculation

          k = 0.1250-0.0722-0.0510 ( 13242 PWs)   bands (ev):

   -22.0118 -21.8438 -21.8344 -21.8344 -21.8342 -21.7782 -21.7782 -21.7780
    -8.0819  -8.0819  -8.0808  -7.7764  -7.7763  -7.7754  -7.7501  -5.9461
    -5.7978  -5.7978  -5.7965  -5.7413  -5.7413  -5.7400  -5.5835  -4.8559
    -4.7291  -4.7290  -4.7290  -4.5269  -4.5269  -4.5265  -4.4316  -4.4315
    -4.4315  -4.4107  -4.4107  -4.2142  -4.2141  -4.2138  -4.2109  -4.2109
    -4.0383  -1.9060  -1.8849  -1.8848  -1.8840  -1.2712  -1.2712  -1.2704
     6.7631   6.7631   6.7631   6.8175   6.8175   6.8785   7.6106   7.6106
     7.6793   7.6794   7.6803   7.6876   7.6883   7.6883   9.0865   9.0866
     9.0867   9.1166   9.1684   9.1684   9.1691   9.1850   9.1856   9.1856
     9.2517   9.2520   9.2520   9.3427   9.7058   9.7058   9.7168   9.7174
     9.7174   9.7730   9.7737   9.7737   9.8210   9.8210   9.8218   9.8581
     9.8582   9.8588   9.8797   9.8918   9.8919   9.8920   9.9029   9.9029
    12.3534  12.3536  12.3539  12.3846  12.3993  12.3994  12.3996  12.4709
    12.4712  12.4723  12.4785  12.4787  12.4818  12.5106  12.5112  12.5137
    12.5198  12.5204  12.5236

          k = 0.1250-0.0722 0.2552 ( 13183 PWs)   bands (ev):

   -21.9945 -21.8526 -21.8346 -21.8345 -21.8258 -21.7964 -21.7781 -21.7779
    -7.9837  -7.9831  -7.9767  -7.7166  -7.6999  -7.6993  -7.6463  -6.2618
    -6.1887  -6.1881  -6.1833  -6.0380  -6.0372  -5.7306  -5.6850  -4.9370
    -4.7290  -4.7289  -4.6922  -4.4972  -4.4515  -4.4433  -4.4430  -4.3922
    -4.2533  -4.2202  -4.2096  -4.0182  -4.0178  -3.9283  -3.9281  -3.8105
    -3.6924  -2.0571  -2.0087  -2.0082  -1.9933  -1.4418  -1.4413  -1.4366
     6.9204   6.9307   6.9308   6.9337   6.9650   7.0976   7.6104   7.6173
     7.7397   7.7401   7.7700   7.7708   7.7930   7.8506   8.7753   8.7845
     8.7925   8.8498   8.8499   8.9683   9.0061   9.0062   9.1965   9.1972
     9.2006   9.2204   9.2205   9.3058   9.5923   9.6030   9.6105   9.6182
     9.6588   9.6595   9.6736   9.6743   9.8169   9.8172   9.9282   9.9283
     9.9495   9.9509   9.9610  10.0274  10.0606  10.0607  10.0662  10.1212
    12.3650  12.3920  12.3928  12.4104  12.4389  12.4393  12.4475  12.4622
    12.4645  12.4890  12.4897  12.5118  12.5137  12.5157  12.5217  12.5250
    12.5356  12.5421  12.5426

          k = 0.1250-0.0722-0.6634 ( 13156 PWs)   bands (ev):

   -21.9361 -21.9128 -21.8233 -21.8184 -21.8182 -21.7992 -21.7947 -21.7945
    -7.6897  -7.6858  -7.6851  -7.6359  -7.6353  -7.6127  -7.1720  -6.9639
    -6.7653  -6.6749  -6.6741  -6.4288  -6.4281  -6.1696  -5.4535  -5.2913
    -4.6255  -4.6254  -4.5856  -4.5633  -4.5611  -4.5609  -4.3359  -4.3119
    -4.1843  -4.1777  -3.7997  -3.5023  -3.5019  -3.3661  -3.3656  -3.2578
    -2.9063  -2.6628  -2.0930  -2.0862  -2.0857  -1.9608  -1.9603  -1.9495
     7.2229   7.2447   7.3294   7.3607   7.5331   7.5331   7.5864   7.7392
     7.7782   7.7783   7.9121   8.1695   8.1702   8.2243   8.2297   8.3566
     8.3673   8.3681   8.4213   8.4835   8.4837   8.4898   8.6631   8.6639
     9.2574   9.2742   9.3256   9.3296   9.3296   9.5605   9.5620   9.5891
     9.5907   9.5913   9.6779   9.6787   9.8021   9.8024   9.8642   9.9121
    10.0062  10.0065  10.1867  10.2034  10.2038  10.2361  10.2363  10.2720
    12.4016  12.4254  12.4256  12.4448  12.4451  12.4602  12.4866  12.4867
    12.4947  12.4948  12.4983  12.5076  12.5516  12.5712  12.5924  12.5934
    12.5945  12.6187  12.6222

          k = 0.1250-0.0722-0.3572 ( 13192 PWs)   bands (ev):

   -21.9785 -21.8694 -21.8428 -21.8180 -21.8179 -21.7950 -21.7948 -21.7793
    -7.8946  -7.8940  -7.8876  -7.6735  -7.6730  -7.6297  -7.5271  -6.4873
    -6.4545  -6.4127  -6.4119  -6.1182  -6.1175  -6.0234  -5.6336  -5.0721
    -4.6878  -4.6876  -4.6770  -4.4968  -4.4967  -4.4679  -4.4089  -4.2359
    -4.1906  -4.1899  -4.0106  -4.0103  -3.8661  -3.7489  -3.5514  -3.5509
    -3.4698  -2.2099  -2.1041  -2.0663  -2.0658  -1.5944  -1.5913  -1.5908
     6.9825   7.0323   7.0899   7.1214   7.1214   7.3329   7.5433   7.5486
     7.7390   7.7703   7.8860   7.8866   7.9915   7.9917   8.5577   8.5581
     8.6680   8.6880   8.6887   8.7676   8.7914   8.7919   8.9397   9.0893
     9.1148   9.1334   9.3677   9.3680   9.5155   9.6131   9.6132   9.6167
     9.6549   9.6555   9.7409   9.8080   9.8107   9.8251   9.8564   9.8965
     9.8968  10.0094  10.0155  10.0504  10.1103  10.1106  10.1868  10.1872
    12.3762  12.3765  12.4320  12.4321  12.4394  12.4516  12.4731  12.4998
    12.5001  12.5005  12.5071  12.5072  12.5124  12.5236  12.5250  12.5370
    12.5377  12.5670  12.5883

          k = 0.1250 0.2165-0.1531 ( 13183 PWs)   bands (ev):

   -21.9945 -21.8526 -21.8346 -21.8345 -21.8258 -21.7964 -21.7781 -21.7779
    -7.9837  -7.9831  -7.9767  -7.7166  -7.6999  -7.6993  -7.6463  -6.2618
    -6.1889  -6.1880  -6.1833  -6.0380  -6.0372  -5.7306  -5.6850  -4.9370
    -4.7290  -4.7289  -4.6922  -4.4971  -4.4515  -4.4432  -4.4431  -4.3922
    -4.2533  -4.2202  -4.2096  -4.0182  -4.0178  -3.9283  -3.9280  -3.8105
    -3.6924  -2.0570  -2.0088  -2.0082  -1.9933  -1.4418  -1.4413  -1.4366
     6.9204   6.9307   6.9308   6.9337   6.9650   7.0976   7.6104   7.6173
     7.7397   7.7401   7.7701   7.7708   7.7930   7.8506   8.7753   8.7846
     8.7924   8.8498   8.8499   8.9683   9.0061   9.0062   9.1965   9.1972
     9.2006   9.2204   9.2205   9.3058   9.5923   9.6030   9.6105   9.6182
     9.6589   9.6595   9.6736   9.6743   9.8170   9.8172   9.9282   9.9283
     9.9496   9.9508   9.9610  10.0274  10.0605  10.0607  10.0662  10.1212
    12.3650  12.3917  12.3918  12.4103  12.4385  12.4388  12.4467  12.4622
    12.4627  12.4885  12.4888  12.5112  12.5133  12.5139  12.5184  12.5236
    12.5308  12.5388  12.5415

          k = 0.1250 0.2165-0.7655 ( 13176 PWs)   bands (ev):

   -21.9486 -21.8824 -21.8492 -21.8260 -21.8120 -21.8053 -21.7922 -21.7817
    -7.7323  -7.7204  -7.6993  -7.5794  -7.5632  -7.5322  -7.3731  -6.8179
    -6.8130  -6.7797  -6.6571  -6.5975  -6.1123  -5.9814  -5.7660  -5.3008
    -4.6851  -4.6602  -4.6106  -4.5420  -4.5370  -4.4760  -4.3837  -4.2967
    -4.1005  -4.0018  -3.9653  -3.7104  -3.4228  -3.3012  -3.2465  -3.1691
    -3.1005  -2.4388  -2.2473  -2.2172  -2.2134  -1.8895  -1.8849  -1.8697
     7.1704   7.2302   7.3783   7.4093   7.4747   7.5376   7.5534   7.7066
     7.7764   7.8356   7.9409   7.9785   8.1186   8.2334   8.2895   8.3423
     8.4019   8.4445   8.4583   8.5007   8.5754   8.6754   8.8180   8.9356
     8.9862   9.0319   9.1846   9.2101   9.3908   9.3939   9.4428   9.5347
     9.5904   9.6165   9.6790   9.6954   9.7648   9.7954   9.8180  10.0269
    10.1150  10.1265  10.1589  10.1726  10.2119  10.2537  10.2999  10.3155
    12.3903  12.4063  12.4192  12.4310  12.4467  12.4761  12.5011  12.5098
    12.5121  12.5132  12.5157  12.5312  12.5506  12.5516  12.5546  12.5726
    12.5745  12.5994  12.6059

          k = 0.1250-0.6495 0.1531 ( 13156 PWs)   bands (ev):

   -21.9361 -21.9128 -21.8233 -21.8184 -21.8183 -21.7992 -21.7947 -21.7945
    -7.6897  -7.6858  -7.6851  -7.6359  -7.6353  -7.6127  -7.1720  -6.9639
    -6.7653  -6.6748  -6.6742  -6.4288  -6.4281  -6.1696  -5.4535  -5.2913
    -4.6255  -4.6254  -4.5856  -4.5633  -4.5610  -4.5609  -4.3359  -4.3119
    -4.1843  -4.1777  -3.7997  -3.5023  -3.5019  -3.3661  -3.3656  -3.2578
    -2.9063  -2.6627  -2.0930  -2.0862  -2.0857  -1.9608  -1.9603  -1.9495
     7.2229   7.2447   7.3294   7.3607   7.5331   7.5331   7.5864   7.7392
     7.7782   7.7784   7.9121   8.1696   8.1702   8.2243   8.2297   8.3566
     8.3674   8.3680   8.4213   8.4834   8.4838   8.4898   8.6631   8.6638
     9.2574   9.2742   9.3256   9.3296   9.3297   9.5605   9.5620   9.5890
     9.5910   9.5911   9.6779   9.6787   9.8021   9.8024   9.8642   9.9121
    10.0062  10.0065  10.1867  10.2035  10.2037  10.2361  10.2364  10.2720
    12.4017  12.4254  12.4256  12.4450  12.4453  12.4603  12.4865  12.4868
    12.4947  12.4950  12.4983  12.5075  12.5521  12.5720  12.5928  12.5949
    12.5985  12.6219  12.6260

          k = 0.1250-0.6495 0.4593 ( 13176 PWs)   bands (ev):

   -21.9486 -21.8824 -21.8492 -21.8260 -21.8120 -21.8053 -21.7922 -21.7817
    -7.7323  -7.7204  -7.6993  -7.5794  -7.5632  -7.5322  -7.3731  -6.8179
    -6.8130  -6.7797  -6.6571  -6.5975  -6.1123  -5.9814  -5.7660  -5.3008
    -4.6851  -4.6602  -4.6106  -4.5420  -4.5370  -4.4760  -4.3837  -4.2967
    -4.1005  -4.0018  -3.9653  -3.7104  -3.4228  -3.3012  -3.2465  -3.1691
    -3.1005  -2.4388  -2.2473  -2.2172  -2.2134  -1.8895  -1.8849  -1.8697
     7.1704   7.2302   7.3783   7.4093   7.4747   7.5376   7.5534   7.7066
     7.7764   7.8356   7.9409   7.9785   8.1186   8.2334   8.2895   8.3423
     8.4019   8.4445   8.4583   8.5007   8.5754   8.6754   8.8180   8.9356
     8.9862   9.0319   9.1846   9.2101   9.3908   9.3940   9.4428   9.5347
     9.5904   9.6165   9.6790   9.6954   9.7648   9.7954   9.8180  10.0269
    10.1150  10.1265  10.1589  10.1726  10.2119  10.2537  10.2999  10.3155
    12.3902  12.4066  12.4193  12.4309  12.4461  12.4756  12.5010  12.5098
    12.5126  12.5138  12.5157  12.5314  12.5501  12.5515  12.5545  12.5715
    12.5747  12.5973  12.6074

          k = 0.1250-0.6495-0.4593 ( 13157 PWs)   bands (ev):

   -21.9200 -21.8735 -21.8633 -21.8351 -21.8350 -21.8160 -21.7778 -21.7777
    -7.5042  -7.5035  -7.4771  -7.4276  -7.4269  -7.3888  -7.3465  -7.1265
    -7.1258  -7.1070  -6.8999  -6.5856  -6.5849  -6.2733  -5.4305  -5.2580
    -4.7434  -4.7434  -4.5309  -4.4759  -4.4509  -4.4508  -4.4281  -4.3753
    -4.3713  -4.3068  -3.4407  -3.1939  -3.1935  -2.9312  -2.7872  -2.7867
    -2.6668  -2.5921  -2.5341  -2.4923  -2.4917  -2.2268  -2.2263  -2.1703
     7.4709   7.4767   7.5949   7.5949   7.7231   7.7442   7.7986   7.8701
     7.8937   7.8940   7.9560   7.9573   8.0007   8.0411   8.0419   8.2678
     8.3262   8.3262   8.4626   8.4810   8.4811   8.4904   8.5886   8.7668
     8.8446   9.1129   9.1130   9.2229   9.2651   9.2658   9.3090   9.3403
     9.3738   9.3743   9.4666   9.4675   9.7879   9.7879   9.9886   9.9887
    10.1619  10.1630  10.2216  10.2321  10.4041  10.4438  10.4440  10.4654
    12.4125  12.4127  12.4189  12.4432  12.4434  12.4742  12.4767  12.5126
    12.5128  12.5256  12.5290  12.5292  12.5530  12.5656  12.5659  12.5851
    12.6372  12.6510  12.6581

          k = 0.1250-0.6495-0.1531 ( 13166 PWs)   bands (ev):

   -21.9092 -21.8893 -21.8662 -21.8527 -21.8088 -21.7984 -21.7887 -21.7850
    -7.5019  -7.4798  -7.4711  -7.4557  -7.4382  -7.3724  -7.2505  -7.1616
    -7.1469  -7.1051  -7.0245  -6.8394  -6.2032  -5.9193  -5.7882  -5.5533
    -4.6782  -4.6671  -4.5682  -4.5586  -4.5087  -4.4724  -4.3973  -4.3590
    -4.0334  -4.0044  -3.7243  -3.5757  -2.9939  -2.8558  -2.8391  -2.8074
    -2.6701  -2.6531  -2.4279  -2.3800  -2.3666  -2.2982  -2.2834  -2.2433
     7.4755   7.5082   7.5544   7.5893   7.7222   7.7551   7.7788   7.8167
     7.8686   7.9010   7.9129   8.0177   8.1159   8.1228   8.1776   8.2396
     8.3176   8.3184   8.3368   8.4464   8.4534   8.5888   8.6151   8.7042
     8.7995   8.8711   8.8921   8.9529   9.2861   9.3853   9.4098   9.4753
     9.4937   9.5490   9.5888   9.6610   9.7094   9.7125   9.9483  10.0356
    10.2146  10.2152  10.2197  10.2822  10.3132  10.3675  10.3871  10.3932
    12.4071  12.4082  12.4136  12.4222  12.4680  12.4777  12.5058  12.5177
    12.5219  12.5226  12.5344  12.5412  12.5574  12.5607  12.5762  12.5998
    12.6014  12.6073  12.6111

          k = 0.1250-0.3608 0.0510 ( 13192 PWs)   bands (ev):

   -21.9785 -21.8694 -21.8428 -21.8180 -21.8179 -21.7950 -21.7948 -21.7793
    -7.8946  -7.8940  -7.8876  -7.6736  -7.6729  -7.6297  -7.5271  -6.4873
    -6.4545  -6.4126  -6.4120  -6.1182  -6.1175  -6.0234  -5.6336  -5.0721
    -4.6877  -4.6876  -4.6770  -4.4968  -4.4967  -4.4679  -4.4089  -4.2359
    -4.1906  -4.1899  -4.0106  -4.0103  -3.8661  -3.7489  -3.5513  -3.5509
    -3.4698  -2.2099  -2.1041  -2.0664  -2.0658  -1.5944  -1.5913  -1.5908
     6.9825   7.0323   7.0899   7.1214   7.1215   7.3329   7.5433   7.5486
     7.7390   7.7703   7.8861   7.8866   7.9915   7.9917   8.5577   8.5581
     8.6680   8.6880   8.6886   8.7676   8.7914   8.7919   8.9397   9.0893
     9.1148   9.1334   9.3676   9.3680   9.5155   9.6131   9.6131   9.6167
     9.6549   9.6555   9.7409   9.8080   9.8107   9.8251   9.8564   9.8966
     9.8968  10.0094  10.0155  10.0504  10.1103  10.1106  10.1868  10.1871
    12.3762  12.3765  12.4320  12.4322  12.4395  12.4511  12.4724  12.4982
    12.5002  12.5004  12.5066  12.5068  12.5126  12.5222  12.5232  12.5368
    12.5378  12.5678  12.5740

          k = 0.1250-0.3608 0.3572 ( 13176 PWs)   bands (ev):

   -21.9486 -21.8824 -21.8492 -21.8260 -21.8120 -21.8053 -21.7922 -21.7817
    -7.7323  -7.7204  -7.6993  -7.5794  -7.5632  -7.5322  -7.3731  -6.8179
    -6.8130  -6.7797  -6.6571  -6.5975  -6.1123  -5.9814  -5.7660  -5.3008
    -4.6851  -4.6602  -4.6106  -4.5420  -4.5370  -4.4760  -4.3837  -4.2967
    -4.1005  -4.0018  -3.9653  -3.7104  -3.4228  -3.3012  -3.2465  -3.1691
    -3.1005  -2.4388  -2.2473  -2.2172  -2.2134  -1.8895  -1.8849  -1.8697
     7.1704   7.2302   7.3783   7.4093   7.4747   7.5376   7.5534   7.7066
     7.7764   7.8356   7.9409   7.9785   8.1186   8.2334   8.2895   8.3423
     8.4019   8.4445   8.4583   8.5007   8.5754   8.6754   8.8180   8.9356
     8.9862   9.0319   9.1846   9.2101   9.3908   9.3939   9.4428   9.5347
     9.5904   9.6165   9.6790   9.6954   9.7648   9.7954   9.8180  10.0269
    10.1150  10.1265  10.1589  10.1726  10.2119  10.2537  10.2999  10.3155
    12.3903  12.4064  12.4194  12.4313  12.4464  12.4758  12.5002  12.5097
    12.5124  12.5132  12.5162  12.5309  12.5501  12.5510  12.5531  12.5729
    12.5747  12.6009  12.6019

          k = 0.1250-0.3608-0.5613 ( 13166 PWs)   bands (ev):

   -21.9092 -21.8894 -21.8662 -21.8527 -21.8088 -21.7984 -21.7887 -21.7850
    -7.5019  -7.4797  -7.4711  -7.4557  -7.4382  -7.3724  -7.2505  -7.1616
    -7.1469  -7.1051  -7.0245  -6.8394  -6.2032  -5.9193  -5.7882  -5.5533
    -4.6782  -4.6671  -4.5682  -4.5586  -4.5087  -4.4724  -4.3973  -4.3590
    -4.0334  -4.0044  -3.7243  -3.5757  -2.9939  -2.8558  -2.8391  -2.8075
    -2.6701  -2.6531  -2.4279  -2.3800  -2.3666  -2.2982  -2.2834  -2.2433
     7.4755   7.5082   7.5544   7.5893   7.7222   7.7551   7.7788   7.8167
     7.8686   7.9010   7.9129   8.0177   8.1159   8.1228   8.1776   8.2396
     8.3176   8.3185   8.3368   8.4464   8.4534   8.5888   8.6151   8.7042
     8.7995   8.8712   8.8921   8.9529   9.2861   9.3853   9.4098   9.4753
     9.4937   9.5490   9.5888   9.6610   9.7093   9.7125   9.9483  10.0356
    10.2146  10.2152  10.2197  10.2822  10.3132  10.3675  10.3871  10.3932
    12.4070  12.4079  12.4135  12.4220  12.4677  12.4775  12.5057  12.5175
    12.5217  12.5221  12.5340  12.5410  12.5579  12.5605  12.5759  12.5995
    12.6011  12.6071  12.6129

          k = 0.1250-0.3608-0.2552 ( 13163 PWs)   bands (ev):

   -21.9624 -21.8595 -21.8349 -21.8348 -21.8300 -21.8194 -21.7779 -21.7778
    -7.7895  -7.7888  -7.7721  -7.5759  -7.5640  -7.5633  -7.4892  -6.6864
    -6.6822  -6.6814  -6.5785  -6.3484  -6.3477  -6.0360  -5.5782  -5.0832
    -4.7372  -4.7372  -4.6232  -4.4672  -4.4485  -4.4484  -4.4433  -4.3786
    -4.3302  -4.2520  -3.8085  -3.5415  -3.5411  -3.3990  -3.3985  -3.3630
    -3.1943  -2.3135  -2.2347  -2.2341  -2.2176  -1.7692  -1.7686  -1.7475
     7.1466   7.1581   7.2373   7.2373   7.3456   7.4838   7.6652   7.6808
     7.8277   7.8279   7.9005   7.9106   7.9114   8.0713   8.3141   8.3321
     8.5704   8.6237   8.6238   8.6933   8.6934   8.8300   8.9959   9.0977
     9.1602   9.1604   9.1616   9.2282   9.2289   9.3319   9.4138   9.4311
     9.5034   9.5040   9.5554   9.5562   9.7998   9.7998   9.9664   9.9665
    10.0531  10.0590  10.1873  10.2096  10.2354  10.3007  10.3009  10.3412
    12.3979  12.4287  12.4289  12.4319  12.4322  12.4364  12.4740  12.4950
    12.4955  12.5145  12.5152  12.5344  12.5363  12.5372  12.5658  12.5774
    12.5810  12.5863  12.6049

          k = 0.3750-0.2165-0.1531 ( 13173 PWs)   bands (ev):

   -21.9636 -21.8940 -21.8182 -21.8182 -21.8180 -21.7949 -21.7949 -21.7946
    -7.8217  -7.8217  -7.8207  -7.6581  -7.6581  -7.6571  -7.3633  -6.6836
    -6.4197  -6.4197  -6.4186  -6.3571  -6.3571  -6.3560  -5.3897  -5.0865
    -4.6452  -4.6451  -4.6451  -4.5221  -4.5220  -4.5220  -4.3541  -4.3540
    -4.2713  -4.2713  -3.7627  -3.7626  -3.7620  -3.5328  -3.5327  -3.5321
    -3.2205  -2.4014  -2.0738  -2.0738  -2.0730  -1.7202  -1.7202  -1.7194
     7.0702   7.0702   7.2677   7.2678   7.2678   7.4053   7.4053   7.5599
     7.8503   7.8503   7.8506   8.0671   8.0677   8.0677   8.4383   8.4383
     8.4391   8.4886   8.6601   8.6608   8.6608   8.6961   8.6961   8.6971
     9.3631   9.3633   9.3633   9.4307   9.6126   9.6126   9.6127   9.6465
     9.7164   9.7165   9.7707   9.7713   9.7713   9.8061   9.8061   9.8190
     9.8197   9.8197  10.1364  10.1364  10.1368  10.1705  10.1705  10.1709
    12.4101  12.4102  12.4105  12.4551  12.4553  12.4554  12.4627  12.4628
    12.4632  12.4900  12.4901  12.4904  12.5569  12.5573  12.5697  12.5712
    12.5720  12.6055  12.6061

          k = 0.3750-0.2165 0.1531 ( 13163 PWs)   bands (ev):

   -21.9624 -21.8595 -21.8349 -21.8348 -21.8300 -21.8194 -21.7779 -21.7778
    -7.7895  -7.7888  -7.7721  -7.5759  -7.5640  -7.5634  -7.4892  -6.6864
    -6.6822  -6.6814  -6.5785  -6.3484  -6.3477  -6.0360  -5.5782  -5.0832
    -4.7372  -4.7372  -4.6232  -4.4672  -4.4486  -4.4483  -4.4433  -4.3785
    -4.3302  -4.2520  -3.8085  -3.5415  -3.5411  -3.3990  -3.3985  -3.3630
    -3.1943  -2.3135  -2.2347  -2.2342  -2.2176  -1.7692  -1.7686  -1.7475
     7.1466   7.1581   7.2373   7.2373   7.3456   7.4837   7.6652   7.6808
     7.8277   7.8280   7.9005   7.9106   7.9114   8.0713   8.3141   8.3321
     8.5704   8.6237   8.6238   8.6933   8.6934   8.8300   8.9959   9.0977
     9.1602   9.1604   9.1615   9.2282   9.2289   9.3319   9.4138   9.4311
     9.5033   9.5040   9.5554   9.5562   9.7997   9.7999   9.9663   9.9665
    10.0531  10.0590  10.1873  10.2096  10.2354  10.3008  10.3009  10.3412
    12.3979  12.4286  12.4287  12.4318  12.4319  12.4364  12.4740  12.4950
    12.4957  12.5145  12.5149  12.5349  12.5363  12.5365  12.5682  12.5759
    12.5777  12.5814  12.6035

          k = 0.3750-0.2165-0.7655 ( 13157 PWs)   bands (ev):

   -21.9200 -21.8735 -21.8633 -21.8351 -21.8350 -21.8160 -21.7778 -21.7777
    -7.5042  -7.5035  -7.4771  -7.4275  -7.4269  -7.3888  -7.3465  -7.1265
    -7.1258  -7.1070  -6.8999  -6.5856  -6.5849  -6.2733  -5.4305  -5.2580
    -4.7434  -4.7434  -4.5309  -4.4759  -4.4510  -4.4507  -4.4280  -4.3753
    -4.3713  -4.3068  -3.4407  -3.1939  -3.1935  -2.9312  -2.7872  -2.7867
    -2.6668  -2.5921  -2.5341  -2.4922  -2.4918  -2.2268  -2.2263  -2.1703
     7.4709   7.4767   7.5949   7.5949   7.7231   7.7442   7.7986   7.8701
     7.8937   7.8940   7.9559   7.9573   8.0007   8.0411   8.0419   8.2678
     8.3262   8.3262   8.4626   8.4810   8.4811   8.4904   8.5886   8.7668
     8.8446   9.1129   9.1130   9.2229   9.2651   9.2658   9.3090   9.3403
     9.3738   9.3744   9.4667   9.4675   9.7879   9.7880   9.9886   9.9888
    10.1619  10.1630  10.2215  10.2321  10.4041  10.4438  10.4440  10.4654
    12.4124  12.4125  12.4188  12.4429  12.4430  12.4742  12.4763  12.5126
    12.5127  12.5256  12.5289  12.5291  12.5535  12.5649  12.5656  12.5845
    12.6330  12.6522  12.6569

          k = 0.3750-0.2165-0.4593 ( 13169 PWs)   bands (ev):

   -21.9230 -21.8998 -21.8602 -21.8186 -21.8184 -21.7946 -21.7944 -21.7889
    -7.6201  -7.6194  -7.5320  -7.5316  -7.5290  -7.4956  -7.2475  -7.0253
    -7.0040  -6.9352  -6.9344  -6.4348  -6.4341  -5.9091  -5.6058  -5.6007
    -4.6220  -4.6220  -4.5907  -4.5905  -4.5855  -4.5063  -4.4187  -4.2890
    -4.0107  -3.9127  -3.8781  -3.4781  -3.4777  -3.0963  -2.9831  -2.9825
    -2.9114  -2.5762  -2.2478  -2.2453  -2.2447  -2.1236  -2.0964  -2.0959
     7.3002   7.3783   7.4858   7.5026   7.6240   7.7126   7.7129   7.7636
     7.8358   7.8568   7.8569   8.0474   8.2258   8.2261   8.2402   8.2409
     8.2558   8.3332   8.3673   8.3680   8.5817   8.6505   8.6512   8.7455
     8.7807   8.8176   9.2261   9.2735   9.2997   9.2997   9.4932   9.4933
     9.5053   9.6445   9.6451   9.6702   9.7512   9.7515  10.0154  10.0177
    10.0630  10.1423  10.2128  10.2522  10.2526  10.3189  10.3278  10.3280
    12.4024  12.4025  12.4076  12.4422  12.4432  12.4849  12.5076  12.5079
    12.5183  12.5238  12.5418  12.5425  12.5470  12.5614  12.5929  12.5978
    12.6015  12.6035  12.6047

          k = 0.3750-0.5052-0.0510 ( 13169 PWs)   bands (ev):

   -21.9230 -21.8998 -21.8602 -21.8186 -21.8184 -21.7946 -21.7944 -21.7889
    -7.6201  -7.6194  -7.5323  -7.5314  -7.5290  -7.4956  -7.2475  -7.0253
    -7.0040  -6.9351  -6.9345  -6.4348  -6.4341  -5.9090  -5.6058  -5.6007
    -4.6220  -4.6219  -4.5906  -4.5905  -4.5855  -4.5063  -4.4187  -4.2890
    -4.0107  -3.9127  -3.8781  -3.4781  -3.4777  -3.0963  -2.9830  -2.9826
    -2.9114  -2.5762  -2.2478  -2.2453  -2.2447  -2.1236  -2.0964  -2.0959
     7.3002   7.3783   7.4858   7.5026   7.6240   7.7126   7.7129   7.7636
     7.8358   7.8568   7.8569   8.0474   8.2258   8.2260   8.2402   8.2410
     8.2558   8.3332   8.3673   8.3680   8.5817   8.6505   8.6512   8.7455
     8.7807   8.8176   9.2261   9.2735   9.2997   9.2997   9.4932   9.4933
     9.5053   9.6445   9.6451   9.6702   9.7512   9.7515  10.0154  10.0177
    10.0631  10.1423  10.2128  10.2523  10.2525  10.3189  10.3278  10.3280
    12.4024  12.4024  12.4075  12.4421  12.4425  12.4844  12.5075  12.5077
    12.5174  12.5237  12.5417  12.5423  12.5471  12.5610  12.5928  12.5964
    12.5986  12.6028  12.6054

          k = 0.3750-0.5052 0.2552 ( 13166 PWs)   bands (ev):

   -21.9092 -21.8893 -21.8662 -21.8527 -21.8088 -21.7984 -21.7887 -21.7850
    -7.5019  -7.4798  -7.4711  -7.4557  -7.4383  -7.3724  -7.2505  -7.1616
    -7.1469  -7.1051  -7.0245  -6.8394  -6.2032  -5.9193  -5.7882  -5.5533
    -4.6782  -4.6671  -4.5682  -4.5586  -4.5087  -4.4724  -4.3973  -4.3590
    -4.0334  -4.0044  -3.7243  -3.5757  -2.9939  -2.8558  -2.8391  -2.8074
    -2.6701  -2.6531  -2.4279  -2.3800  -2.3666  -2.2982  -2.2834  -2.2433
     7.4755   7.5082   7.5544   7.5893   7.7222   7.7551   7.7788   7.8167
     7.8686   7.9010   7.9129   8.0177   8.1159   8.1228   8.1776   8.2396
     8.3176   8.3184   8.3368   8.4464   8.4534   8.5888   8.6151   8.7042
     8.7995   8.8712   8.8921   8.9529   9.2861   9.3853   9.4098   9.4753
     9.4937   9.5490   9.5888   9.6610   9.7094   9.7125   9.9483  10.0356
    10.2146  10.2152  10.2197  10.2822  10.3132  10.3675  10.3871  10.3932
    12.4070  12.4080  12.4135  12.4220  12.4678  12.4778  12.5057  12.5175
    12.5218  12.5223  12.5340  12.5414  12.5577  12.5609  12.5758  12.5999
    12.6023  12.6069  12.6141

     the Fermi energy is    11.6818 ev

!    total energy              =   -4526.71811040 Ry

     total all-electron energy =     -6268.268389 Ry
     estimated scf accuracy    <       0.00000739 Ry
     smearing contrib. (-TS)   =       0.00000000 Ry
     internal energy E=F+TS    =   -4526.71811040 Ry

     The total energy is F=E-TS. E is the sum of the following terms:
     one-electron contribution =     -99.12228762 Ry
     hartree contribution      =     198.76522892 Ry
     xc contribution           =    -202.41520882 Ry
     ewald contribution        =   -1006.38839996 Ry
     one-center paw contrib.   =   -3417.55744291 Ry

     convergence has been achieved in  26 iterations

     Writing all to output data dir ./out/CeO2.save/
 
     init_run     :      4.12s CPU      4.44s WALL (       1 calls)
     electrons    :    108.19s CPU    112.77s WALL (       1 calls)

     Called by init_run:
     wfcinit      :      2.27s CPU      2.35s WALL (       1 calls)
     potinit      :      0.87s CPU      0.99s WALL (       1 calls)
     hinit0       :      0.73s CPU      0.75s WALL (       1 calls)

     Called by electrons:
     c_bands      :     74.40s CPU     75.39s WALL (      26 calls)
     sum_band     :     16.29s CPU     18.24s WALL (      26 calls)
     v_of_rho     :      8.42s CPU      8.80s WALL (      27 calls)
     newd         :      1.98s CPU      3.15s WALL (      27 calls)
     PAW_pot      :      5.81s CPU      5.87s WALL (      27 calls)
     mix_rho      :      0.72s CPU      0.75s WALL (      26 calls)

     Called by c_bands:
     init_us_2    :      1.05s CPU      1.07s WALL (      53 calls)
     init_us_2:cp :      1.05s CPU      1.07s WALL (      53 calls)
     cegterg      :     61.06s CPU     62.04s WALL (      26 calls)

     Called by *egterg:
     cdiaghg      :      2.36s CPU      2.37s WALL (     201 calls)
     h_psi        :     46.34s CPU     46.85s WALL (     202 calls)
     s_psi        :      4.26s CPU      4.26s WALL (     202 calls)
     g_psi        :      0.14s CPU      0.15s WALL (     175 calls)

     Called by h_psi:
     h_psi:calbec :      3.77s CPU      3.78s WALL (     202 calls)
     vloc_psi     :     38.07s CPU     38.32s WALL (     202 calls)
     add_vuspsi   :      4.26s CPU      4.27s WALL (     202 calls)

     General routines
     calbec       :      4.97s CPU      4.98s WALL (     228 calls)
     fft          :      5.15s CPU      5.25s WALL (     349 calls)
     ffts         :      0.26s CPU      0.28s WALL (      53 calls)
     fftw         :     32.90s CPU     33.13s WALL (   19368 calls)
     interpolate  :      0.70s CPU      0.73s WALL (      27 calls)
 
     Parallel routines
 
     PWSCF        :   1m52.55s CPU   1m58.50s WALL

 
   This run was terminated on:   0:21:13  13Oct2022            

=------------------------------------------------------------------------------=
   JOB DONE.
=------------------------------------------------------------------------------=

======================================================================================
                  Resource Usage on 2022-10-13 00:21:16:
   Job Id:             60242104.gadi-pbs
   Project:            jx00
   Exit Status:        0
   Service Units:      3.27
   NCPUs Requested:    40                     NCPUs Used: 40              
                                           CPU Time Used: 01:20:39        
   Memory Requested:   190.0GB               Memory Used: 22.99GB         
   Walltime requested: 00:10:00            Walltime Used: 00:02:04        
   JobFS requested:    100.0MB                JobFS used: 8.17MB          
======================================================================================
